units metal
dimension 3
boundary p p f
atom_style atomic

# Tungsten parameters
variable lattice_param equal 3.165    # W BCC lattice
variable box_x equal 64               # X dimension (unit cells)
variable box_y equal 64               # Y dimension (unit cells)
variable box_z equal 47               # Z dimension (unit cells)
variable indent_radius equal 9.5      # Indenter radius (Ã…)
variable force_constant equal 10.0       # eV/Ã…Â²
variable indent_velocity equal 0.10   # Ã…/ps
variable indent_velocity_u equal 0.10  # Ã…/ps
variable max_indent equal 25.0         # Max penetration depth (Ã…)
variable temperature equal 10.0
variable timestep_val equal 0.002     # 2 fs timestep

# Create W single crystal
lattice bcc ${lattice_param} orient x 1 0 0 orient y 0 1 0 orient z 0 0 1
lattice bcc 3.165 orient x 1 0 0 orient y 0 1 0 orient z 0 0 1
Lattice spacing in x,y,z = 3.165 3.165 3.165
region simbox block 0 ${box_x} 0 ${box_y} 0 ${box_z}
region simbox block 0 64 0 ${box_y} 0 ${box_z}
region simbox block 0 64 0 64 0 ${box_z}
region simbox block 0 64 0 64 0 47
create_box 1 simbox
Created orthogonal box = (0 0 0) to (202.56 202.56 148.755)
  2 by 31 by 1 MPI processor grid
create_atoms 1 box
Created 385024 atoms
  using lattice units in orthogonal box = (0 0 0) to (202.56 202.56 148.755)
  create_atoms CPU = 0.002 seconds

# Atomic properties
mass 1 183.84

# EAM potential for W
pair_style eam/alloy
pair_coeff * * potential-WHHe-EAM1.eam.alloy W

# ============================================================================
# VOID CREATION SECTION - NEW ADDITION
# ============================================================================

# Define void parameters
variable void1_x equal 45.0  # x-coordinate of void 1 center (Ã…)
variable void1_y equal 24.0  # y-coordinate of void 1 center (Ã…)
variable void1_z equal 115.0  # z-coordinate of void 1 center (Ã…)
variable void1_radius equal 20.0  # radius of void 1 (Ã…)

variable void2_x equal 101.28  # x-coordinate of void 2 center (Ã…)
variable void2_y equal 121.0  # y-coordinate of void 2 center (Ã…)
variable void2_z equal 101.28.0  # z-coordinate of void 2 center (Ã…)
variable void2_radius equal 10.0  # radius of void 2 (Ã…)

variable void3_x equal 120.0   # x-coordinate of void 3 center (Ã…)
variable void3_y equal 66.0  # y-coordinate of void 3 center (Ã…)
variable void3_z equal 42.0  # z-coordinate of void 3 center (Ã…)
variable void3_radius equal 15.0  # radius of void 3 (Ã…)

# Create spherical regions for voids
region void1 sphere ${void1_x} ${void1_y} ${void1_z} ${void1_radius}
region void1 sphere 45 ${void1_y} ${void1_z} ${void1_radius}
region void1 sphere 45 24 ${void1_z} ${void1_radius}
region void1 sphere 45 24 115 ${void1_radius}
region void1 sphere 45 24 115 20
region void2 sphere ${void2_x} ${void2_y} ${void2_z} ${void2_radius}
region void2 sphere 101.28 ${void2_y} ${void2_z} ${void2_radius}
region void2 sphere 101.28 121 ${void2_z} ${void2_radius}
region void2 sphere 101.28 121 101.28 ${void2_radius}
region void2 sphere 101.28 121 101.28 10
region void3 sphere ${void3_x} ${void3_y} ${void3_z} ${void3_radius}
region void3 sphere 120 ${void3_y} ${void3_z} ${void3_radius}
region void3 sphere 120 66 ${void3_z} ${void3_radius}
region void3 sphere 120 66 42 ${void3_radius}
region void3 sphere 120 66 42 15

# Delete atoms in void regions to create spherical voids
delete_atoms region void1
Deleted 0 atoms, new total = 385024
delete_atoms region void2
Deleted 0 atoms, new total = 385024
delete_atoms region void3
Deleted 0 atoms, new total = 385024

# Print information about void creation
print "============================================================================"
============================================================================
print "VOID CREATION COMPLETED:"
VOID CREATION COMPLETED:
print "Void 1: Center=(${void1_x}, ${void1_y}, ${void1_z}), Radius=${void1_radius} Ã…---------------------------------------------------------------------------------------------------------------"
WARNING: Detected non-ASCII characters in input. Will try to continue by replacing with ASCII equivalents where known. (src/src/input.cpp:478)
Void 1: Center=(45, 24, 115), Radius=20 …---------------------------------------------------------------------------------------------------------------
print "Void 2: Center=(${void2_x}, ${void2_y}, ${void2_z}), Radius=${void2_radius} Ã…--------------------------------------------------------------------------------------------------------------"
Void 2: Center=(101.28, 121, 101.28), Radius=10 …--------------------------------------------------------------------------------------------------------------
print "Void 3: Center=(${void3_x}, ${void3_y}, ${void3_z}), Radius=${void3_radius} Ã…----------------------------------------------------------------------------------------------------------------------"
Void 3: Center=(120, 66, 42), Radius=15 …----------------------------------------------------------------------------------------------------------------------
print "============================================================================"
============================================================================

# ============================================================================
# END OF VOID CREATION SECTION
# ============================================================================

# --- Minimization #1: right after void creation ---
# Relax local stresses from deleting atoms
print "Minimization(1)-------------------------------------------------------------------------------------------------------"
Minimization(1)-------------------------------------------------------------------------------------------------------
minimize 1.0e-6 1.0e-8 1000 10000
Neighbor list info ...
  update: every = 1 steps, delay = 0 steps, check = yes
  max neighbors/atom: 2000, page size: 100000
  master list distance cutoff = 7.4604375
  ghost atom cutoff = 7.4604375
  binsize = 3.7302188, bins = 55 55 40
  1 neighbor lists, perpetual/occasional/extra = 1 0 0
  (1) pair eam/alloy, perpetual
      attributes: half, newton on
      pair build: half/bin/atomonly/newton
      stencil: half/bin/3d
      bin: standard
Per MPI rank memory allocation (min/avg/max) = 10.4 | 10.5 | 10.93 Mbytes
   Step          Temp          E_pair         E_mol          TotEng         Press     
         0   0             -3409240.8      0             -3409240.8     -75131.769    
        24   0             -3411393.3      0             -3411393.3     -30952.374    
Loop time of 0.655902 on 62 procs for 24 steps with 385024 atoms

98.9% CPU use with 62 MPI tasks x 1 OpenMP threads

Minimization stats:
  Stopping criterion = energy tolerance
  Energy initial, next-to-last, final = 
     -3409240.80965845  -3411393.09269984  -3411393.30948003
  Force two-norm initial, final = 73.178752 1.2697249
  Force max component initial, final = 0.69367159 0.0070731764
  Final line search alpha, max atom move = 1 0.0070731764
  Iterations, force evaluations = 24 48

MPI task timing breakdown:
Section |  min time  |  avg time  |  max time  |%varavg| %total
---------------------------------------------------------------
Pair    | 0.56721    | 0.56896    | 0.57204    |   0.2 | 86.75
Neigh   | 0.0091209  | 0.010133   | 0.012539   |   0.8 |  1.54
Comm    | 0.047954   | 0.057716   | 0.061285   |   1.2 |  8.80
Output  | 0          | 0          | 0          |   0.0 |  0.00
Modify  | 0          | 0          | 0          |   0.0 |  0.00
Other   |            | 0.01909    |            |       |  2.91

Nlocal:        6210.06 ave        7522 max        6005 min
Histogram: 52 0 0 0 2 2 0 0 0 6
Nghost:        17088.3 ave       18011 max       14756 min
Histogram: 6 0 4 0 16 0 0 0 0 36
Neighs:         341289 ave      413574 max      322346 min
Histogram: 32 20 0 0 0 4 0 0 0 6

Total # of neighbors = 21159936
Ave neighs/atom = 54.957447
Neighbor list builds = 1
Dangerous builds = 0


# Regions and groups
variable fix_height equal 2.0
variable thermo_height equal 5.0
region bottom_fix block INF INF INF INF 0 ${fix_height}
region bottom_fix block INF INF INF INF 0 2
region thermo_region block INF INF INF INF ${fix_height} ${thermo_height}
region thermo_region block INF INF INF INF 2 ${thermo_height}
region thermo_region block INF INF INF INF 2 5
region mobile_region block INF INF INF INF ${thermo_height} INF
region mobile_region block INF INF INF INF 5 INF

group bottom region bottom_fix
16384 atoms in group bottom
group thermo region thermo_region
24576 atoms in group thermo
group mobile region mobile_region
344064 atoms in group mobile

# Reflective walls to prevent atoms from escaping in z-direction
fix wall_bottom all wall/reflect zlo EDGE
fix wall_top all wall/reflect zhi EDGE

# Time integration
timestep ${timestep_val}
timestep 0.002

dump trajectory all atom 100 nanoindent_void.dump
dump_modify trajectory first yes

# Energy minimization(2)-----------------------------------------------------------------------------------
minimize 1.0e-9 1.0e-11 5000 50000
Per MPI rank memory allocation (min/avg/max) = 10.4 | 10.5 | 10.93 Mbytes
   Step          Temp          E_pair         E_mol          TotEng         Press     
        24   0             -3411393.3      0             -3411393.3     -30952.374    
        48   0             -3411396.3      0             -3411396.3     -32365.226    
Loop time of 0.740754 on 62 procs for 24 steps with 385024 atoms

99.4% CPU use with 62 MPI tasks x 1 OpenMP threads

Minimization stats:
  Stopping criterion = energy tolerance
  Energy initial, next-to-last, final = 
     -3411393.30948003  -3411396.33494571  -3411396.33603943
  Force two-norm initial, final = 1.2697249 0.050947209
  Force max component initial, final = 0.0070731764 0.00031538352
  Final line search alpha, max atom move = 1 0.00031538352
  Iterations, force evaluations = 24 48

MPI task timing breakdown:
Section |  min time  |  avg time  |  max time  |%varavg| %total
---------------------------------------------------------------
Pair    | 0.65107    | 0.65284    | 0.6587     |   0.2 | 88.13
Neigh   | 0          | 0          | 0          |   0.0 |  0.00
Comm    | 0.043083   | 0.054804   | 0.058317   |   1.3 |  7.40
Output  | 0          | 0          | 0          |   0.0 |  0.00
Modify  | 0          | 0          | 0          |   0.0 |  0.00
Other   |            | 0.03311    |            |       |  4.47

Nlocal:        6210.06 ave        7524 max        6006 min
Histogram: 52 0 0 0 2 2 0 0 0 6
Nghost:        17088.3 ave       18008 max       14754 min
Histogram: 6 0 4 0 16 0 0 0 0 36
Neighs:         341289 ave      414010 max      322403 min
Histogram: 32 20 0 0 0 4 0 0 0 6

Total # of neighbors = 21159936
Ave neighs/atom = 54.957447
Neighbor list builds = 0
Dangerous builds = 0

# Thermal equilibration
velocity all create ${temperature} 12345 mom yes rot no
velocity all create 10 12345 mom yes rot no
fix 1 thermo nvt temp ${temperature} ${temperature} $(50*dt)
fix 1 thermo nvt temp 10 ${temperature} $(50*dt)
fix 1 thermo nvt temp 10 10 $(50*dt)
fix 1 thermo nvt temp 10 10 0.10000000000000000555
thermo 100
thermo_style custom step temp pe ke etotal press vol
run 2000
Per MPI rank memory allocation (min/avg/max) = 9.442 | 9.532 | 9.962 Mbytes
   Step          Temp          PotEng         KinEng         TotEng         Press          Volume    
        48   10            -3411396.3      497.68129     -3410898.7     -32278.131      6103500      
       100   9.8081496     -3411385.7      488.13325     -3410897.6     -32281.659      6103500      
       200   9.7663739     -3411377.7      486.05415     -3410891.6     -32287.082      6103500      
       300   9.8703499     -3411375.9      491.22885     -3410884.6     -32284.953      6103500      
       400   9.9105877     -3411370.2      493.2314      -3410876.9     -32288.292      6103500      
       500   9.9667781     -3411365.9      496.0279      -3410869.8     -32288.348      6103500      
       600   10.054686     -3411365.7      500.40291     -3410865.3     -32289.136      6103500      
       700   10.015282     -3411364.7      498.44187     -3410866.3     -32288.63       6103500      
       800   10.02892      -3411367        499.12059     -3410867.8     -32289.422      6103500      
       900   9.9896116     -3411363.8      497.16428     -3410866.6     -32289.123      6103500      
      1000   10.010964     -3411364.4      498.22695     -3410866.2     -32289.759      6103500      
      1100   9.9846641     -3411364.5      496.91805     -3410867.6     -32289.1        6103500      
      1200   10.008039     -3411364.9      498.08139     -3410866.8     -32290.001      6103500      
      1300   10.016575     -3411364.6      498.50619     -3410866.1     -32288.73       6103500      
      1400   10.01017      -3411365.4      498.18744     -3410867.2     -32289.626      6103500      
      1500   10.013116     -3411365.4      498.33403     -3410867.1     -32289.272      6103500      
      1600   10.018569     -3411364.8      498.60545     -3410866.2     -32288.871      6103500      
      1700   10.007869     -3411365        498.07293     -3410866.9     -32289.587      6103500      
      1800   9.9916245     -3411364.5      497.26446     -3410867.3     -32289.839      6103500      
      1900   10.021405     -3411365        498.74657     -3410866.3     -32288.875      6103500      
      2000   9.9839872     -3411363.7      496.88436     -3410866.8     -32290.18       6103500      
      2048   9.98269       -3411364.1      496.8198      -3410867.2     -32289.824      6103500      
Loop time of 24.3329 on 62 procs for 2000 steps with 385024 atoms

Performance: 14.203 ns/day, 1.690 hours/ns, 82.193 timesteps/s, 31.646 Matom-step/s
99.7% CPU use with 62 MPI tasks x 1 OpenMP threads

MPI task timing breakdown:
Section |  min time  |  avg time  |  max time  |%varavg| %total
---------------------------------------------------------------
Pair    | 15.51      | 17.746     | 22.224     |  34.4 | 72.93
Neigh   | 0          | 0          | 0          |   0.0 |  0.00
Comm    | 1.3345     | 2.7249     | 5.1377     |  65.9 | 11.20
Output  | 0.12677    | 0.19808    | 0.26902    |   9.4 |  0.81
Modify  | 0.16546    | 3.3414     | 5.348      |  73.2 | 13.73
Other   |            | 0.3224     |            |       |  1.32

Nlocal:        6210.06 ave        7526 max        6002 min
Histogram: 52 0 0 0 2 2 0 0 0 6
Nghost:        17088.3 ave       18015 max       14752 min
Histogram: 6 0 4 0 16 0 0 0 0 36
Neighs:         341289 ave      414780 max      322190 min
Histogram: 32 20 0 0 0 4 0 0 0 6

Total # of neighbors = 21159936
Ave neighs/atom = 54.957447
Neighbor list builds = 0
Dangerous builds = 0
unfix 1

fix 2 bottom setforce 0.0 0.0 0.0
# Energy minimization(3)------------------------------------------------------------------------------------
minimize 1.0e-9 1.0e-11 5000 50000
Per MPI rank memory allocation (min/avg/max) = 11.69 | 11.78 | 12.21 Mbytes
   Step          Temp          PotEng         KinEng         TotEng         Press          Volume    
      2048   9.98269       -3411364.1      496.8198      -3410867.2     -32289.824      6103500      
      2057   9.98269       -3411396.3      496.8198      -3410899.5     -32278.209      6103500      
Loop time of 0.295487 on 62 procs for 9 steps with 385024 atoms

99.7% CPU use with 62 MPI tasks x 1 OpenMP threads

Minimization stats:
  Stopping criterion = energy tolerance
  Energy initial, next-to-last, final = 
     -3411364.06501837  -3411396.33150875  -3411396.33327572
  Force two-norm initial, final = 28.160306 0.11929232
  Force max component initial, final = 0.46562186 0.0017056338
  Final line search alpha, max atom move = 1 0.0017056338
  Iterations, force evaluations = 9 18

MPI task timing breakdown:
Section |  min time  |  avg time  |  max time  |%varavg| %total
---------------------------------------------------------------
Pair    | 0.25232    | 0.25304    | 0.25539    |   0.1 | 85.64
Neigh   | 0          | 0          | 0          |   0.0 |  0.00
Comm    | 0.016365   | 0.021233   | 0.022622   |   0.8 |  7.19
Output  | 0          | 0          | 0          |   0.0 |  0.00
Modify  | 0.00012547 | 0.00015498 | 0.00025071 |   0.0 |  0.05
Other   |            | 0.02106    |            |       |  7.13

Nlocal:        6210.06 ave        7528 max        6001 min
Histogram: 52 0 0 0 1 3 0 0 0 6
Nghost:        17086.7 ave       18016 max       14750 min
Histogram: 6 0 4 0 16 0 0 0 0 36
Neighs:         341289 ave      414839 max      322120 min
Histogram: 32 20 0 0 0 4 0 0 0 6

Total # of neighbors = 21159936
Ave neighs/atom = 54.957447
Neighbor list builds = 0
Dangerous builds = 0

# Add NVE integration for mobile group
fix integrator mobile nve

# Indenter setup
variable x_center equal 32.0
variable y_center equal 32.0
variable z_surface equal $(zhi)
variable z_surface equal 148.75499999999999545
variable z_indent_start equal $(v_z_surface + 35.0)
variable z_indent_start equal 183.75499999999999545
variable step0 equal step
variable z_indent equal "v_z_indent_start - v_indent_velocity * time"

# Thermostat and forces
fix fix_bottom bottom setforce 0.0 0.0 0.0
fix thermostat thermo langevin ${temperature} ${temperature} $(50*dt) 48279
fix thermostat thermo langevin 10 ${temperature} $(50*dt) 48279
fix thermostat thermo langevin 10 10 $(50*dt) 48279
fix thermostat thermo langevin 10 10 0.10000000000000000555 48279


fix indenter mobile indent ${force_constant} sphere ${x_center} ${y_center} v_z_indent ${indent_radius}
fix indenter mobile indent 10 sphere ${x_center} ${y_center} v_z_indent ${indent_radius}
fix indenter mobile indent 10 sphere 32 ${y_center} v_z_indent ${indent_radius}
fix indenter mobile indent 10 sphere 32 32 v_z_indent ${indent_radius}
fix indenter mobile indent 10 sphere 32 32 v_z_indent 9.5
# Output settings
thermo 200
thermo_style custom step temp pe ke etotal press v_z_indent f_indenter


# ------------------------ Loading --------------------------
print "Loading phase........................................................................................."
Loading phase.........................................................................................

variable loading_steps equal ${max_indent}/${indent_velocity}/${timestep_val}
variable loading_steps equal 25/${indent_velocity}/${timestep_val}
variable loading_steps equal 25/0.1/${timestep_val}
variable loading_steps equal 25/0.1/0.002
run ${loading_steps}
run 125000
Per MPI rank memory allocation (min/avg/max) = 9.442 | 9.533 | 9.962 Mbytes
   Step          Temp          PotEng         KinEng         TotEng         Press        v_z_indent     f_indenter  
      2057   9.98269       -3411396.3      496.8198      -3410899.5     -32278.209      183.3526       0            
      2200   6.0391001     -3411199.9      300.55471     -3410899.4     -32359.973      183.324        0            
      2400   5.5991316     -3411178        278.6583      -3410899.4     -32374.267      183.284        0            
      2600   5.640274      -3411180.1      280.70588     -3410899.4     -32359.856      183.244        0            
      2800   5.5871762     -3411177.4      278.0633      -3410899.4     -32373.446      183.204        0            
      3000   5.5020342     -3411173.2      273.82595     -3410899.4     -32368.604      183.164        0            
      3200   5.4625337     -3411171.2      271.86008     -3410899.4     -32367.581      183.124        0            
      3400   5.4724262     -3411171.7      272.35241     -3410899.4     -32348.033      183.084        0            
      3600   5.4810534     -3411172.1      272.78177     -3410899.4     -32365.399      183.044        0            
      3800   5.5085251     -3411173.5      274.14898     -3410899.4     -32360.885      183.004        0            
      4000   5.5338831     -3411174.8      275.41101     -3410899.4     -32349.931      182.964        0            
      4200   5.5346652     -3411174.8      275.44993     -3410899.4     -32341.227      182.924        0            
      4400   5.5248086     -3411174.3      274.95939     -3410899.4     -32346.341      182.884        0            
      4600   5.5303785     -3411174.6      275.23659     -3410899.4     -32344.188      182.844        0            
      4800   5.5153513     -3411173.9      274.48871     -3410899.4     -32349.271      182.804        0            
      5000   5.5255655     -3411174.4      274.99706     -3410899.4     -32348.508      182.764        0            
      5200   5.5281386     -3411174.5      275.12511     -3410899.4     -32347.427      182.724        0            
      5400   5.5413986     -3411175.2      275.78504     -3410899.4     -32349.113      182.684        0            
      5600   5.5335826     -3411174.8      275.39605     -3410899.4     -32348.886      182.644        0            
      5800   5.5293103     -3411174.6      275.18343     -3410899.4     -32350.568      182.604        0            
      6000   5.5047078     -3411173.3      273.95901     -3410899.4     -32364.689      182.564        0            
      6200   5.5072452     -3411173.5      274.08529     -3410899.4     -32352.427      182.524        0            
      6400   5.5075837     -3411173.5      274.10214     -3410899.4     -32362.138      182.484        0            
      6600   5.5059151     -3411173.4      274.01909     -3410899.4     -32361.983      182.444        0            
      6800   5.5143303     -3411173.8      274.4379      -3410899.4     -32371.557      182.404        0            
      7000   5.5171364     -3411173.9      274.57756     -3410899.4     -32371.859      182.364        0            
      7200   5.5201397     -3411174.1      274.72702     -3410899.4     -32376.108      182.324        0            
      7400   5.5049976     -3411173.3      273.97343     -3410899.4     -32370.178      182.284        0            
      7600   5.5082681     -3411173.5      274.1362      -3410899.4     -32369.97       182.244        0            
      7800   5.5119304     -3411173.7      274.31846     -3410899.4     -32362.412      182.204        0            
      8000   5.5223026     -3411174.2      274.83466     -3410899.4     -32361.304      182.164        0            
      8200   5.5189844     -3411174        274.66953     -3410899.4     -32373.585      182.124        0            
      8400   5.5274812     -3411174.5      275.0924      -3410899.4     -32367.85       182.084        0            
      8600   5.5184446     -3411174        274.64266     -3410899.4     -32353.831      182.044        0            
      8800   5.5166679     -3411173.9      274.55424     -3410899.4     -32357.961      182.004        0            
      9000   5.5103139     -3411173.6      274.23801     -3410899.4     -32364.744      181.964        0            
      9200   5.5125298     -3411173.7      274.34829     -3410899.4     -32349.89       181.924        0            
      9400   5.5255282     -3411174.4      274.9952      -3410899.4     -32342.077      181.884        0            
      9600   5.5383978     -3411175        275.63569     -3410899.4     -32345.286      181.844        0            
      9800   5.530548      -3411174.6      275.24502     -3410899.4     -32346.074      181.804        0            
     10000   5.5233722     -3411174.3      274.8879      -3410899.4     -32343.525      181.764        0            
     10200   5.5233681     -3411174.3      274.88769     -3410899.4     -32343.607      181.724        0            
     10400   5.5037723     -3411173.3      273.91245     -3410899.4     -32353.687      181.684        0            
     10600   5.5187427     -3411174        274.6575      -3410899.4     -32346.384      181.644        0            
     10800   5.5299615     -3411174.6      275.21583     -3410899.4     -32354.569      181.604        0            
     11000   5.511151      -3411173.6      274.27967     -3410899.4     -32347.364      181.564        0            
     11200   5.5162004     -3411173.9      274.53097     -3410899.4     -32358.166      181.524        0            
     11400   5.5086294     -3411173.5      274.15418     -3410899.4     -32365.722      181.484        0            
     11600   5.529614      -3411174.6      275.19854     -3410899.4     -32351.139      181.444        0            
     11800   5.5278509     -3411174.5      275.1108      -3410899.4     -32360.778      181.404        0            
     12000   5.5257572     -3411174.4      275.00659     -3410899.4     -32365.511      181.364        0            
     12200   5.5215993     -3411174.2      274.79967     -3410899.4     -32373.448      181.324        0            
     12400   5.5218761     -3411174.2      274.81344     -3410899.4     -32371.689      181.284        0            
     12600   5.5103244     -3411173.6      274.23854     -3410899.4     -32378.003      181.244        0            
     12800   5.5335225     -3411174.8      275.39306     -3410899.4     -32367.194      181.204        0            
     13000   5.5304804     -3411174.6      275.24166     -3410899.4     -32368.11       181.164        0            
     13200   5.5258253     -3411174.4      275.00998     -3410899.4     -32363.03       181.124        0            
     13400   5.5271395     -3411174.4      275.07539     -3410899.4     -32369.941      181.084        0            
     13600   5.5261977     -3411174.4      275.02852     -3410899.4     -32372.343      181.044        0            
     13800   5.5140617     -3411173.8      274.42453     -3410899.4     -32357.835      181.004        0            
     14000   5.5179004     -3411174        274.61558     -3410899.4     -32347.428      180.964        0            
     14200   5.5151582     -3411173.8      274.47911     -3410899.4     -32366.054      180.924        0            
     14400   5.511811      -3411173.7      274.31252     -3410899.4     -32356.495      180.884        0            
     14600   5.5329697     -3411174.7      275.36555     -3410899.4     -32345.535      180.844        0            
     14800   5.5270084     -3411174.4      275.06887     -3410899.4     -32345.259      180.804        0            
     15000   5.5255944     -3411174.4      274.99849     -3410899.4     -32345.136      180.764        0            
     15200   5.5234434     -3411174.3      274.89144     -3410899.4     -32347.495      180.724        0            
     15400   5.5131241     -3411173.7      274.37787     -3410899.4     -32347.125      180.684        0            
     15600   5.5285643     -3411174.5      275.1463      -3410899.4     -32346.144      180.644        0            
     15800   5.5232312     -3411174.3      274.88088     -3410899.4     -32354.692      180.604        0            
     16000   5.5233066     -3411174.3      274.88463     -3410899.4     -32345.211      180.564        0            
     16200   5.5269042     -3411174.4      275.06368     -3410899.4     -32346.022      180.524        0            
     16400   5.526935      -3411174.4      275.06522     -3410899.4     -32350.304      180.484        0            
     16600   5.5242897     -3411174.3      274.93356     -3410899.4     -32366.178      180.444        0            
     16800   5.5096591     -3411173.6      274.20543     -3410899.4     -32357.693      180.404        0            
     17000   5.5268079     -3411174.4      275.05889     -3410899.4     -32357.098      180.364        0            
     17200   5.5349525     -3411174.8      275.46423     -3410899.4     -32366.121      180.324        0            
     17400   5.5218262     -3411174.2      274.81096     -3410899.4     -32374.538      180.284        0            
     17600   5.521404      -3411174.2      274.78995     -3410899.4     -32373.724      180.244        0            
     17800   5.5137296     -3411173.8      274.408       -3410899.4     -32371.588      180.204        0            
     18000   5.524949      -3411174.3      274.96637     -3410899.4     -32368.463      180.164        0            
     18200   5.5298031     -3411174.6      275.20795     -3410899.4     -32366.683      180.124        0            
     18400   5.5172714     -3411174        274.58427     -3410899.4     -32360.658      180.084        0            
     18600   5.5061855     -3411173.4      274.03255     -3410899.4     -32369.035      180.044        0            
     18800   5.5210327     -3411174.1      274.77147     -3410899.4     -32364.975      180.004        0            
     19000   5.5085102     -3411173.5      274.14824     -3410899.4     -32365.16       179.964        0            
     19200   5.5093637     -3411173.6      274.19072     -3410899.4     -32357.336      179.924        0            
     19400   5.5178241     -3411174        274.61178     -3410899.4     -32356.824      179.884        0            
     19600   5.5306501     -3411174.6      275.2501      -3410899.4     -32369.492      179.844        0            
     19800   5.5316081     -3411174.7      275.29778     -3410899.4     -32346.119      179.804        0            
     20000   5.5175985     -3411174        274.60055     -3410899.4     -32340.358      179.764        0            
     20200   5.5149433     -3411173.8      274.46841     -3410899.4     -32342.484      179.724        0            
     20400   5.5111606     -3411173.6      274.28015     -3410899.4     -32347.418      179.684        0            
     20600   5.5230201     -3411174.2      274.87038     -3410899.4     -32345.46       179.644        0            
     20800   5.5167151     -3411173.9      274.55659     -3410899.4     -32345.743      179.604        0            
     21000   5.5231716     -3411174.2      274.87792     -3410899.4     -32351.921      179.564        0            
     21200   5.5306956     -3411174.6      275.25237     -3410899.4     -32355.752      179.524        0            
     21400   5.5202157     -3411174.1      274.73081     -3410899.4     -32349.625      179.484        0            
     21600   5.5106042     -3411173.6      274.25246     -3410899.4     -32347.292      179.444        0            
     21800   5.5100125     -3411173.6      274.22301     -3410899.4     -32364.812      179.404        0            
     22000   5.5163467     -3411173.9      274.53825     -3410899.4     -32366.063      179.364        0            
     22200   5.5191367     -3411174        274.67711     -3410899.4     -32352.415      179.324        0            
     22400   5.5173438     -3411174        274.58788     -3410899.4     -32363.273      179.284        0            
     22600   5.5264784     -3411174.4      275.04249     -3410899.4     -32369.014      179.244        0            
     22800   5.5251823     -3411174.3      274.97798     -3410899.4     -32368.313      179.204        0            
     23000   5.5184452     -3411174        274.64269     -3410899.4     -32376.223      179.164        0            
     23200   5.5318831     -3411174.7      275.31147     -3410899.4     -32372.77       179.124        0            
     23400   5.5334833     -3411174.8      275.39111     -3410899.4     -32365.609      179.084        0            
     23600   5.5112959     -3411173.7      274.28688     -3410899.4     -32369.928      179.044        0            
     23800   5.5173689     -3411174        274.58913     -3410899.4     -32362.967      179.004        0            
     24000   5.5300809     -3411174.6      275.22178     -3410899.4     -32367.133      178.964        0            
     24200   5.50801       -3411173.5      274.12335     -3410899.4     -32363.685      178.924        0            
     24400   5.5244662     -3411174.3      274.94234     -3410899.4     -32359.085      178.884        0            
     24600   5.5062422     -3411173.4      274.03537     -3410899.4     -32351.477      178.844        0            
     24800   5.5208747     -3411174.1      274.76361     -3410899.4     -32357.197      178.804        0            
     25000   5.5212903     -3411174.2      274.78429     -3410899.4     -32357.246      178.764        0            
     25200   5.5228098     -3411174.2      274.85991     -3410899.4     -32337.993      178.724        0            
     25400   5.5282523     -3411174.5      275.13077     -3410899.4     -32343.966      178.684        0            
     25600   5.5318341     -3411174.7      275.30903     -3410899.4     -32345.382      178.644        0            
     25800   5.5166971     -3411173.9      274.55569     -3410899.4     -32347.836      178.604        0            
     26000   5.5186785     -3411174        274.6543      -3410899.4     -32345.326      178.564        0            
     26200   5.5104886     -3411173.6      274.24671     -3410899.4     -32349.082      178.524        0            
     26400   5.5219511     -3411174.2      274.81717     -3410899.4     -32355.126      178.484        0            
     26600   5.4996155     -3411173.1      273.70557     -3410899.4     -32346.012      178.444        0            
     26800   5.5012386     -3411173.2      273.78635     -3410899.4     -32346.787      178.404        0            
     27000   5.5090841     -3411173.5      274.17681     -3410899.4     -32357.008      178.364        0            
     27200   5.5114768     -3411173.7      274.29589     -3410899.4     -32368.428      178.324        0            
     27400   5.521706      -3411174.2      274.80497     -3410899.4     -32361.051      178.284        0            
     27600   5.5241734     -3411174.3      274.92778     -3410899.4     -32356.009      178.244        0            
     27800   5.5328265     -3411174.7      275.35842     -3410899.4     -32371.094      178.204        0            
     28000   5.5123887     -3411173.7      274.34127     -3410899.4     -32375.406      178.164        0            
     28200   5.5102786     -3411173.6      274.23625     -3410899.4     -32376.912      178.124        0            
     28400   5.5073065     -3411173.5      274.08834     -3410899.4     -32372.87       178.084        0            
     28600   5.5147734     -3411173.8      274.45995     -3410899.4     -32367.902      178.044        0            
     28800   5.5258516     -3411174.4      275.01129     -3410899.4     -32366.949      178.004        0            
     29000   5.5251945     -3411174.3      274.97859     -3410899.4     -32368.926      177.964        0            
     29200   5.5271141     -3411174.4      275.07413     -3410899.4     -32366.025      177.924        0            
     29400   5.5297973     -3411174.6      275.20767     -3410899.4     -32367.463      177.884        0            
     29600   5.5284222     -3411174.5      275.13923     -3410899.4     -32360.697      177.844        0            
     29800   5.5232835     -3411174.3      274.88349     -3410899.4     -32353.903      177.804        0            
     30000   5.5196062     -3411174.1      274.70047     -3410899.4     -32356.829      177.764        0            
     30200   5.5203019     -3411174.1      274.7351      -3410899.4     -32360.565      177.724        0            
     30400   5.5201565     -3411174.1      274.72786     -3410899.4     -32345.522      177.684        0            
     30600   5.533076      -3411174.7      275.37084     -3410899.4     -32337.363      177.644        0            
     30800   5.5265096     -3411174.4      275.04404     -3410899.4     -32345.987      177.604        0            
     31000   5.5284853     -3411174.5      275.14237     -3410899.4     -32340.15       177.564        0            
     31200   5.5170027     -3411173.9      274.5709      -3410899.4     -32344.255      177.524        0            
     31400   5.5265408     -3411174.4      275.0456      -3410899.4     -32348.725      177.484        0            
     31600   5.5256488     -3411174.4      275.0012      -3410899.4     -32348.679      177.444        0            
     31800   5.5278488     -3411174.5      275.11069     -3410899.4     -32350.597      177.404        0            
     32000   5.5228847     -3411174.2      274.86364     -3410899.4     -32345.867      177.364        0            
     32200   5.5326197     -3411174.7      275.34813     -3410899.4     -32348.278      177.324        0            
     32400   5.5246612     -3411174.3      274.95205     -3410899.4     -32361.615      177.284        0            
     32600   5.5224587     -3411174.2      274.84243     -3410899.4     -32363.986      177.244        0            
     32800   5.521641      -3411174.2      274.80174     -3410899.4     -32353.265      177.204        0            
     33000   5.5204219     -3411174.1      274.74107     -3410899.4     -32364.83       177.164        0            
     33200   5.5424529     -3411175.2      275.83751     -3410899.4     -32379.941      177.124        0            
     33400   5.5262577     -3411174.4      275.03151     -3410899.4     -32371.102      177.084        0            
     33600   5.5268121     -3411174.4      275.0591      -3410899.4     -32374.54       177.044        0            
     33800   5.5214414     -3411174.2      274.7918      -3410899.4     -32368.705      177.004        0            
     34000   5.5220896     -3411174.2      274.82407     -3410899.4     -32370.75       176.964        0            
     34200   5.5250233     -3411174.3      274.97007     -3410899.4     -32370.868      176.924        0            
     34400   5.523236      -3411174.3      274.88112     -3410899.4     -32366.382      176.884        0            
     34600   5.5147895     -3411173.8      274.46076     -3410899.4     -32367.421      176.844        0            
     34800   5.5289243     -3411174.5      275.16421     -3410899.4     -32366.264      176.804        0            
     35000   5.5169558     -3411173.9      274.56857     -3410899.4     -32357.993      176.764        0            
     35200   5.5269834     -3411174.4      275.06762     -3410899.4     -32357.985      176.724        0            
     35400   5.5331446     -3411174.7      275.37425     -3410899.4     -32359.809      176.684        0            
     35600   5.5074552     -3411173.5      274.09574     -3410899.4     -32353.391      176.644        0            
     35800   5.5164254     -3411173.9      274.54217     -3410899.4     -32342.856      176.604        0            
     36000   5.5209176     -3411174.1      274.76574     -3410899.4     -32345.883      176.564        0            
     36200   5.5276318     -3411174.5      275.09989     -3410899.4     -32338.264      176.524        0            
     36400   5.522181      -3411174.2      274.82862     -3410899.4     -32343.939      176.484        0            
     36600   5.5234603     -3411174.3      274.89228     -3410899.4     -32345.021      176.444        0            
     36800   5.5214085     -3411174.2      274.79017     -3410899.4     -32351.739      176.404        0            
     37000   5.5171875     -3411173.9      274.5801      -3410899.4     -32349.472      176.364        0            
     37200   5.5065591     -3411173.4      274.05114     -3410899.4     -32346.936      176.324        0            
     37400   5.5219169     -3411174.2      274.81547     -3410899.4     -32344.891      176.284        0            
     37600   5.525048      -3411174.3      274.9713      -3410899.4     -32358.046      176.244        0            
     37800   5.527968      -3411174.5      275.11662     -3410899.4     -32364.751      176.204        0            
     38000   5.5155643     -3411173.9      274.49932     -3410899.4     -32357.173      176.164        0            
     38200   5.5310243     -3411174.6      275.26873     -3410899.4     -32354.922      176.124        0            
     38400   5.5240211     -3411174.3      274.92019     -3410899.4     -32371.972      176.084        0            
     38600   5.5124849     -3411173.7      274.34606     -3410899.4     -32376.047      176.044        1.3780412e-05
     38800   5.5283208     -3411174.5      275.13418     -3410899.4     -32365.078      176.004        0.0013481257 
     39000   5.5201067     -3411174.1      274.72538     -3410899.4     -32372.293      175.964        0.0066635154 
     39200   5.5205425     -3411174.1      274.74707     -3410899.4     -32367.867      175.924        0.015034634  
     39400   5.5147223     -3411173.8      274.45741     -3410899.4     -32363.283      175.884        0.03130124   
     39600   5.5271262     -3411174.4      275.07473     -3410899.3     -32364.167      175.844        0.046023984  
     39800   5.5323314     -3411174.7      275.33378     -3410899.3     -32358.182      175.804        0.069144608  
     40000   5.5337315     -3411174.7      275.40346     -3410899.3     -32355.194      175.764        0.099721519  
     40200   5.5315224     -3411174.5      275.29352     -3410899.3     -32341.366      175.724        0.12174702   
     40400   5.5236826     -3411174.1      274.90335     -3410899.2     -32331.285      175.684        0.1693036    
     40600   5.5211477     -3411173.9      274.77719     -3410899.2     -32325.058      175.644        0.2136369    
     40800   5.524644      -3411174.1      274.95119     -3410899.1     -32316.944      175.604        0.2591139    
     41000   5.5149465     -3411173.5      274.46857     -3410899       -32293.992      175.564        0.31948489   
     41200   5.5127283     -3411173.3      274.35817     -3410898.9     -32279.162      175.524        0.38153562   
     41400   5.5239089     -3411173.8      274.91461     -3410898.8     -32269.446      175.484        0.46446105   
     41600   5.5107376     -3411173        274.2591      -3410898.7     -32248.24       175.444        0.54035018   
     41800   5.5111351     -3411172.8      274.27888     -3410898.5     -32244.102      175.404        0.59997862   
     42000   5.5128933     -3411172.7      274.36638     -3410898.3     -32224.128      175.364        0.67879484   
     42200   5.5256682     -3411173.1      275.00217     -3410898.1     -32207.557      175.324        0.73115511   
     42400   5.5131857     -3411172.3      274.38093     -3410897.9     -32182.836      175.284        0.85699114   
     42600   5.5219183     -3411172.5      274.81554     -3410897.6     -32163.481      175.244        0.94210974   
     42800   5.5317258     -3411172.7      275.30364     -3410897.4     -32146.217      175.204        1.0664354    
     43000   5.515977      -3411171.6      274.51985     -3410897.1     -32142.347      175.164        1.1765258    
     43200   5.5237974     -3411171.7      274.90906     -3410896.8     -32110.583      175.124        1.3090954    
     43400   5.5168154     -3411171        274.56158     -3410896.4     -32087.714      175.084        1.3947491    
     43600   5.5077311     -3411170.1      274.10947     -3410896       -32084.378      175.044        1.5271148    
     43800   5.5228538     -3411170.5      274.8621      -3410895.6     -32075.053      175.004        1.6813333    
     44000   5.5186602     -3411169.8      274.65339     -3410895.2     -32045.63       174.964        1.8435446    
     44200   5.5170122     -3411169.3      274.57138     -3410894.7     -32026.685      174.924        2.0028126    
     44400   5.5084088     -3411168.3      274.1432      -3410894.2     -32009.824      174.884        2.1450437    
     44600   5.5139873     -3411168        274.42083     -3410893.6     -31989.314      174.844        2.2701876    
     44800   5.5218849     -3411167.9      274.81388     -3410893.1     -31966.79       174.804        2.4802062    
     45000   5.5162062     -3411167        274.53126     -3410892.5     -31951.215      174.764        2.632897     
     45200   5.5236504     -3411166.7      274.90174     -3410891.8     -31932.099      174.724        2.7729317    
     45400   5.5323607     -3411166.5      275.33524     -3410891.2     -31911.718      174.684        2.9898314    
     45600   5.5205235     -3411165.2      274.74612     -3410890.4     -31883.427      174.644        3.1464155    
     45800   5.5134062     -3411164        274.39191     -3410889.6     -31865.224      174.604        3.2772039    
     46000   5.5184208     -3411163.5      274.64148     -3410888.9     -31845.36       174.564        3.5476024    
     46200   5.5141662     -3411162.5      274.42973     -3410888.1     -31820.238      174.524        3.7833292    
     46400   5.521502      -3411162        274.79482     -3410887.2     -31784.284      174.484        3.9871745    
     46600   5.5095655     -3411160.5      274.20077     -3410886.3     -31764.313      174.444        4.2457609    
     46800   5.5130909     -3411159.6      274.37622     -3410885.3     -31733.503      174.404        4.3911711    
     47000   5.5044664     -3411158.3      273.947       -3410884.4     -31701.918      174.364        4.736531     
     47200   5.5144359     -3411157.8      274.44316     -3410883.4     -31677.56       174.324        5.0420797    
     47400   5.5222021     -3411157.1      274.82967     -3410882.3     -31647.53       174.284        5.2646467    
     47600   5.528374      -3411156.3      275.13683     -3410881.1     -31614.808      174.244        5.5380514    
     47800   5.5177983     -3411154.4      274.61049     -3410879.8     -31581.455      174.204        5.6249328    
     48000   5.5157376     -3411153.1      274.50794     -3410878.6     -31549.208      174.164        5.9830773    
     48200   5.5234328     -3411152.2      274.89092     -3410877.3     -31523.102      174.124        6.2130899    
     48400   5.5293809     -3411151.3      275.18694     -3410876.1     -31490.132      174.084        6.621507     
     48600   5.5220707     -3411149.5      274.82312     -3410874.6     -31443.781      174.044        6.8426452    
     48800   5.5256429     -3411148.2      275.00091     -3410873.2     -31416.592      174.004        7.1377672    
     49000   5.5313284     -3411147.1      275.28386     -3410871.9     -31397.186      173.964        7.6124096    
     49200   5.5246465     -3411145.1      274.95132     -3410870.2     -31355.622      173.924        7.7985913    
     49400   5.5312575     -3411143.9      275.28034     -3410868.6     -31315.539      173.884        8.1259745    
     49600   5.527112      -3411142        275.07402     -3410866.9     -31290.407      173.844        8.4596911    
     49800   5.530876      -3411140.4      275.26135     -3410865.2     -31253.49       173.804        8.7048318    
     50000   5.5252244     -3411138.5      274.98008     -3410863.5     -31224.443      173.764        9.1913317    
     50200   5.5216266     -3411136.5      274.80102     -3410861.7     -31181.412      173.724        9.5266683    
     50400   5.512623      -3411134.3      274.35293     -3410859.9     -31157.508      173.684        10.015364    
     50600   5.518654      -3411132.4      274.65308     -3410857.8     -31123.207      173.644        10.186652    
     50800   5.5195303     -3411130.5      274.6967      -3410855.8     -31077.548      173.604        10.63539     
     51000   5.5134279     -3411128.2      274.39299     -3410853.8     -31033.928      173.564        11.100947    
     51200   5.5148507     -3411126.1      274.4638      -3410851.7     -31008.953      173.524        11.465406    
     51400   5.5190987     -3411124.2      274.67522     -3410849.5     -30976.282      173.484        11.881718    
     51600   5.5102748     -3411121.5      274.23607     -3410847.2     -30923.725      173.444        12.267069    
     51800   5.504896      -3411118.8      273.96837     -3410844.9     -30882.132      173.404        12.654351    
     52000   5.5250388     -3411117.5      274.97085     -3410842.5     -30848.383      173.364        13.093419    
     52200   5.5216021     -3411115        274.7998      -3410840.2     -30799.081      173.324        13.657054    
     52400   5.5176628     -3411112.3      274.60375     -3410837.7     -30763.475      173.284        14.132204    
     52600   5.5249469     -3411110        274.96627     -3410835       -30721.347      173.244        14.482591    
     52800   5.5222242     -3411107.2      274.83077     -3410832.4     -30674.914      173.204        14.935483    
     53000   5.5259724     -3411104.8      275.0173      -3410829.8     -30626.058      173.164        15.544363    
     53200   5.5238017     -3411101.8      274.90927     -3410826.9     -30586.398      173.124        15.938033    
     53400   5.521834      -3411099        274.81135     -3410824.2     -30545.534      173.084        16.513444    
     53600   5.5215178     -3411096.2      274.79561     -3410821.4     -30507.977      173.044        17.139309    
     53800   5.5286602     -3411093.9      275.15107     -3410818.7     -30455.51       173.004        17.974675    
     54000   5.5217827     -3411090        274.80879     -3410815.2     -30405.592      172.964        18.034529    
     54200   5.5146831     -3411086.7      274.45546     -3410812.2     -30373.712      172.924        18.684433    
     54400   5.5307452     -3411084.4      275.25484     -3410809.1     -30335.907      172.884        19.289392    
     54600   5.5167879     -3411080.5      274.56021     -3410806       -30278.14       172.844        19.997002    
     54800   5.5235524     -3411077.4      274.89687     -3410802.5     -30234.992      172.804        20.480395    
     55000   5.5262685     -3411074        275.03204     -3410799       -30192.353      172.764        20.887155    
     55200   5.5301686     -3411070.9      275.22614     -3410795.6     -30148.98       172.724        21.630451    
     55400   5.5359226     -3411067.7      275.51251     -3410792.2     -30100.039      172.684        22.319089    
     55600   5.5347536     -3411063.9      275.45433     -3410788.4     -30045.885      172.644        22.833808    
     55800   5.538696      -3411060.3      275.65054     -3410784.6     -30011.029      172.604        23.39806     
     56000   5.5392952     -3411056.5      275.68036     -3410780.8     -29948.938      172.564        24.04635     
     56200   5.5264043     -3411051.9      275.0388      -3410776.9     -29891.947      172.524        24.610201    
     56400   5.5177474     -3411047.4      274.60796     -3410772.8     -29846.481      172.484        25.113423    
     56600   5.5274236     -3411043.7      275.08953     -3410768.6     -29807.603      172.444        25.6357      
     56800   5.5310991     -3411039.9      275.27245     -3410764.7     -29741.243      172.404        26.499751    
     57000   5.525693      -3411035.4      275.0034      -3410760.4     -29674.957      172.364        27.149146    
     57200   5.5192896     -3411031        274.68472     -3410756.3     -29630.137      172.324        28.028635    
     57400   5.5336329     -3411027.1      275.39855     -3410751.7     -29574.89       172.284        28.556369    
     57600   5.5368862     -3411022.5      275.56047     -3410746.9     -29514.123      172.244        28.980053    
     57800   5.5378396     -3411018.2      275.60792     -3410742.6     -29460.819      172.204        29.900237    
     58000   5.5429829     -3411013.7      275.86389     -3410737.8     -29399.819      172.164        30.520024    
     58200   5.5320837     -3411008.6      275.32145     -3410733.3     -29343.816      172.124        31.481122    
     58400   5.5336112     -3411003.5      275.39747     -3410728.1     -29282.07       172.084        31.902791    
     58600   5.5286174     -3410998.6      275.14894     -3410723.4     -29233.305      172.044        32.880508    
     58800   5.5343013     -3410993.9      275.43182     -3410718.5     -29175.398      172.004        33.7772      
     59000   5.527309      -3410988.3      275.08383     -3410713.2     -29117.02       171.964        34.34613     
     59200   5.5447775     -3410983.9      275.9532      -3410708       -29047.348      171.924        35.15248     
     59400   5.5363106     -3410978.2      275.53182     -3410702.7     -28993.72       171.884        35.93258     
     59600   5.5267076     -3410972.3      275.0539      -3410697.2     -28947.28       171.844        36.701607    
     59800   5.5309208     -3410966.8      275.26358     -3410691.6     -28885.784      171.804        37.373547    
     60000   5.5377749     -3410961.7      275.60469     -3410686.1     -28821.413      171.764        38.301771    
     60200   5.5300008     -3410955.5      275.21779     -3410680.3     -28775.923      171.724        39.029522    
     60400   5.5396525     -3410949.8      275.69814     -3410674.1     -28707.134      171.684        39.477762    
     60600   5.538401      -3410944.3      275.63585     -3410668.7     -28652.762      171.644        40.82568     
     60800   5.5319126     -3410937.8      275.31294     -3410662.5     -28586.684      171.604        41.44246     
     61000   5.5326908     -3410931.6      275.35167     -3410656.3     -28533.55       171.564        42.18339     
     61200   5.532891      -3410925.4      275.36163     -3410650.1     -28471.698      171.524        43.042569    
     61400   5.5345092     -3410919        275.44217     -3410643.6     -28402.444      171.484        43.738128    
     61600   5.526958      -3410912.3      275.06636     -3410637.3     -28339.58       171.444        44.691581    
     61800   5.5395087     -3410906.6      275.69098     -3410630.9     -28288.824      171.404        45.695385    
     62000   5.5363609     -3410899.6      275.53432     -3410624.1     -28231.466      171.364        46.43198     
     62200   5.5330138     -3410892.9      275.36774     -3410617.5     -28148.232      171.324        47.511785    
     62400   5.5352742     -3410886.2      275.48024     -3410610.7     -28091.021      171.284        48.405589    
     62600   5.5327372     -3410878.9      275.35398     -3410603.5     -28029.372      171.244        49.016866    
     62800   5.5366012     -3410872.3      275.54628     -3410596.7     -27957.657      171.204        50.187468    
     63000   5.5368715     -3410865.3      275.55973     -3410589.7     -27889.941      171.164        51.205405    
     63200   5.5328685     -3410857.6      275.36051     -3410582.2     -27825.322      171.124        51.891629    
     63400   5.5405783     -3410850.8      275.74421     -3410575.1     -27763.915      171.084        53.042733    
     63600   5.5401338     -3410842.7      275.72209     -3410567       -27694.413      171.044        53.384679    
     63800   5.5430687     -3410835.6      275.86816     -3410559.8     -27622.986      171.004        54.660448    
     64000   5.553567      -3410828.8      276.39064     -3410552.4     -27569.596      170.964        55.990994    
     64200   5.5449801     -3410820.4      275.96328     -3410544.4     -27501.368      170.924        56.720556    
     64400   5.5468199     -3410812.8      276.05485     -3410536.7     -27425.296      170.884        57.959917    
     64600   5.5443025     -3410804.2      275.92956     -3410528.3     -27356.241      170.844        58.502149    
     64800   5.5480152     -3410796.6      276.11434     -3410520.4     -27289.544      170.804        59.771696    
     65000   5.5483866     -3410788.4      276.13282     -3410512.3     -27231.961      170.764        60.850201    
     65200   5.5433668     -3410780.1      275.88299     -3410504.2     -27156.066      170.724        62.123521    
     65400   5.5545715     -3410771.7      276.44063     -3410495.3     -27087.383      170.684        62.72326     
     65600   5.5369813     -3410762        275.5652      -3410486.5     -27015.14       170.644        63.50795     
     65800   5.5338542     -3410753.5      275.40957     -3410478.1     -26942.774      170.604        64.856149    
     66000   5.5475222     -3410745.4      276.0898      -3410469.3     -26874.636      170.564        65.927797    
     66200   5.5537696     -3410737        276.40072     -3410460.6     -26803.799      170.524        67.278162    
     66400   5.5513137     -3410727.3      276.27849     -3410451       -26735.484      170.484        67.810912    
     66600   5.5409172     -3410717.8      275.76108     -3410442       -26653.475      170.444        69.003427    
     66800   5.5399545     -3410708.3      275.71317     -3410432.6     -26579.76       170.404        69.966669    
     67000   5.5409065     -3410698.9      275.76055     -3410423.1     -26506.154      170.364        70.934832    
     67200   5.5330015     -3410688.7      275.36713     -3410413.4     -26443.376      170.324        71.813411    
     67400   5.5453788     -3410680.3      275.98313     -3410404.3     -26367.185      170.284        73.466163    
     67600   5.538545      -3410670.3      275.64302     -3410394.7     -26274.393      170.244        74.778681    
     67800   5.5441197     -3410660.3      275.92046     -3410384.4     -26207.905      170.204        75.46821     
     68000   5.5492388     -3410650.6      276.17523     -3410374.4     -26134.478      170.164        76.644925    
     68200   5.5546982     -3410640.3      276.44694     -3410363.9     -26051.641      170.124        77.373832    
     68400   5.5547069     -3410630.8      276.44737     -3410354.4     -25983.172      170.084        79.291107    
     68600   5.5558076     -3410619.8      276.50215     -3410343.3     -25908.666      170.044        79.702106    
     68800   5.5495472     -3410609.1      276.19058     -3410332.9     -25832.486      170.004        81.020368    
     69000   5.5426657     -3410598.3      275.8481      -3410322.5     -25749.291      169.964        82.422279    
     69200   5.5490203     -3410587.9      276.16435     -3410311.7     -25675.531      169.924        83.617519    
     69400   5.5505441     -3410577        276.24019     -3410300.8     -25601.686      169.884        84.746154    
     69600   5.5508424     -3410565.7      276.25504     -3410289.5     -25517.896      169.844        85.628713    
     69800   5.5437936     -3410553.8      275.90423     -3410277.9     -25437.998      169.804        86.36614     
     70000   5.5434691     -3410542.9      275.88808     -3410267       -25359.692      169.764        87.95899     
     70200   5.5542555     -3410532.4      276.4249      -3410256       -25287.847      169.724        89.582221    
     70400   5.5552627     -3410520.3      276.47503     -3410243.9     -25210.309      169.684        90.223878    
     70600   5.5553345     -3410508.5      276.4786      -3410232       -25125.932      169.644        91.312841    
     70800   5.5518135     -3410497        276.30337     -3410220.7     -25039.021      169.604        92.994241    
     71000   5.5432547     -3410483.9      275.87741     -3410208       -24958.753      169.564        93.479291    
     71200   5.5504228     -3410472.5      276.23416     -3410196.2     -24876.368      169.524        95.0693      
     71400   5.561111      -3410460.6      276.76609     -3410183.8     -24793.052      169.484        96.096472    
     71600   5.5547521     -3410448.2      276.44962     -3410171.7     -24711.326      169.444        97.646171    
     71800   5.5609533     -3410435.9      276.75824     -3410159.1     -24630.266      169.404        98.787838    
     72000   5.5592452     -3410423        276.67323     -3410146.3     -24538.603      169.364        99.932708    
     72200   5.5601478     -3410410.5      276.71815     -3410133.8     -24455.96       169.324        101.42662    
     72400   5.5592938     -3410397.4      276.67565     -3410120.7     -24375.255      169.284        102.5795     
     72600   5.5920474     -3410382.6      278.30573     -3410104.3     -24303.629      169.244        100.4529     
     72800   5.7442603     -3410361.3      285.88108     -3410075.5     -24311.33       169.204        85.193158    
     73000   6.0379759     -3410343.9      300.49876     -3410043.4     -24373.223      169.164        65.546421    
     73200   6.2043001     -3410338.3      308.77641     -3410029.5     -24490.378      169.124        63.24241     
     73400   6.5894074     -3410352.4      327.94248     -3410024.4     -24625.157      169.084        70.387807    
     73600   7.4412485     -3410383.6      370.33701     -3410013.3     -24852.59       169.044        71.815068    
     73800   8.2837076     -3410415.2      412.26463     -3410002.9     -25053.848      169.004        74.032304    
     74000   8.944623      -3410444        445.15715     -3409998.9     -25155.962      168.964        82.954527    
     74200   9.4608387     -3410455.3      470.84824     -3409984.4     -25304.602      168.924        81.363584    
     74400   9.5589261     -3410445.9      475.72986     -3409970.2     -25402.379      168.884        80.103872    
     74600   9.5345277     -3410433.5      474.5156      -3409959       -25519.782      168.844        81.734932    
     74800   9.6136357     -3410429        478.45266     -3409950.5     -25664.998      168.804        86.13276     
     75000   9.585489      -3410415.3      477.05185     -3409938.3     -25795.995      168.764        87.105574    
     75200   9.6263305     -3410404.8      479.08446     -3409925.7     -25917.327      168.724        88.061242    
     75400   9.5798787     -3410390.6      476.77264     -3409913.8     -25952.355      168.684        89.803215    
     75600   9.6417542     -3410380.5      479.85207     -3409900.7     -25927.703      168.644        90.409763    
     75800   9.6596125     -3410366.9      480.74084     -3409886.2     -25762.518      168.604        89.611039    
     76000   9.6556259     -3410352.8      480.54243     -3409872.2     -25423.105      168.564        89.359351    
     76200   9.6820974     -3410343.1      481.85987     -3409861.2     -25026.165      168.524        92.236741    
     76400   9.6446032     -3410326        479.99385     -3409846       -24744.143      168.484        90.989389    
     76600   9.6156919     -3410315.2      478.55499     -3409836.6     -24542.597      168.444        95.809254    
     76800   9.6659046     -3410306.4      481.05398     -3409825.3     -24259.946      168.404        99.117819    
     77000   9.6851649     -3410291.4      482.01254     -3409809.4     -24020.271      168.364        97.868113    
     77200   9.6825939     -3410274.5      481.88458     -3409792.7     -23743.81       168.324        95.631661    
     77400   9.6612002     -3410262.2      480.81985     -3409781.4     -23430.048      168.284        98.929222    
     77600   9.6738732     -3410249.6      481.45057     -3409768.1     -23148.763      168.244        100.45871    
     77800   9.608612      -3410232.3      478.20264     -3409754.1     -22876.271      168.204        101.43444    
     78000   9.6297339     -3410219.5      479.25384     -3409740.3     -22637.783      168.164        102.77787    
     78200   9.5904973     -3410204.7      477.3011      -3409727.4     -22509.957      168.124        105.35067    
     78400   9.6138921     -3410195.7      478.46542     -3409717.2     -22489.158      168.084        111.05918    
     78600   9.6323698     -3410181        479.38502     -3409701.6     -22583.184      168.044        111.66486    
     78800   9.6850457     -3410164.5      482.0066      -3409682.5     -22815.166      168.004        108.71929    
     79000   9.773534      -3410156.1      486.4105      -3409669.7     -22922.952      167.964        111.9224     
     79200   9.7585275     -3410137.9      485.66365     -3409652.3     -22881.945      167.924        110.7474     
     79400   9.7173997     -3410123.4      483.6168      -3409639.8     -22971.366      167.884        114.67527    
     79600   9.6296123     -3410100.4      479.24779     -3409621.2     -23119.806      167.844        112.48232    
     79800   9.6564049     -3410087.8      480.5812      -3409607.2     -23207.616      167.804        115.16017    
     80000   9.707508      -3410076.2      483.12451     -3409593       -23378.721      167.764        117.74247    
     80200   9.7028492     -3410058.2      482.89265     -3409575.3     -23457.558      167.724        117.08968    
     80400   9.6946732     -3410044.7      482.48575     -3409562.2     -23497.825      167.684        121.27144    
     80600   9.7062592     -3410029        483.06236     -3409546       -23507.618      167.644        122.55875    
     80800   9.7348563     -3410015.7      484.48558     -3409531.2     -23410.171      167.604        125.55386    
     81000   9.7290538     -3410000.9      484.1968      -3409516.7     -23221.556      167.564        129.34756    
     81200   9.7867975     -3409981        487.0706      -3409493.9     -22969.203      167.524        124.85634    
     81400   9.8362041     -3409957.2      489.52947     -3409467.7     -22658.54       167.484        116.44645    
     81600   10.019488     -3409935.8      498.65117     -3409437.1     -22427.115      167.444        103.4379     
     81800   10.129558     -3409914.7      504.12915     -3409410.6     -22379.702      167.404        93.268527    
     82000   10.313514     -3409910.1      513.28429     -3409396.9     -22273.713      167.364        95.560402    
     82200   10.30419      -3409895.4      512.82028     -3409382.6     -22039.554      167.324        97.662265    
     82400   10.264603     -3409877.1      510.85006     -3409366.2     -21954.547      167.284        98.029976    
     82600   10.253931     -3409859.4      510.31893     -3409349.1     -21758.432      167.244        97.854996    
     82800   10.353369     -3409846.9      515.26778     -3409331.7     -21676.065      167.204        97.449393    
     83000   10.645828     -3409833.4      529.82293     -3409303.5     -21740.288      167.164        85.613817    
     83200   10.963247     -3409834.7      545.6203      -3409289.1     -21917.138      167.124        86.447281    
     83400   11.299568     -3409840        562.35838     -3409277.6     -22143.824      167.084        90.329118    
     83600   11.499164     -3409839.9      572.29186     -3409267.6     -22461.273      167.044        96.291985    
     83800   11.542116     -3409827.2      574.42952     -3409252.8     -22788.665      167.004        97.742494    
     84000   11.783102     -3409819.5      586.42292     -3409233.1     -23185.627      166.964        94.426171    
     84200   12.370101     -3409833.4      615.63676     -3409217.8     -23629.506      166.924        94.780348    
     84400   12.779446     -3409843.2      636.00912     -3409207.2     -23777.391      166.884        100.26263    
     84600   12.927333     -3409840.3      643.36918     -3409197       -23853.565      166.844        106.98389    
     84800   12.96129      -3409827.8      645.05914     -3409182.7     -23884.514      166.804        110.19363    
     85000   13.010785     -3409816.4      647.52241     -3409168.9     -23848.892      166.764        114.05956    
     85200   12.977781     -3409799.3      645.8799      -3409153.5     -23866.236      166.724        116.90088    
     85400   13.058712     -3409784.1      649.90766     -3409134.2     -23813.424      166.684        116.07908    
     85600   13.162126     -3409769.2      655.05438     -3409114.2     -23565.184      166.644        114.49761    
     85800   13.160652     -3409748.1      654.981       -3409093.1     -23251.654      166.604        111.4766     
     86000   13.169053     -3409727.9      655.39914     -3409072.5     -22924.991      166.564        108.4075     
     86200   13.186239     -3409709.7      656.25446     -3409053.4     -22449.967      166.524        106.52685    
     86400   13.147979     -3409692.1      654.3503      -3409037.7     -21986.176      166.484        108.02291    
     86600   13.19286      -3409680.4      656.58393     -3409023.8     -21419.853      166.444        111.74033    
     86800   13.188806     -3409670.1      656.3822      -3409013.7     -20897.288      166.404        120.04891    
     87000   13.120523     -3409654.7      652.98386     -3409001.7     -20527.639      166.364        127.49705    
     87200   13.079556     -3409631.4      650.94502     -3408980.4     -20216.978      166.324        125.85904    
     87400   13.106463     -3409612.2      652.28414     -3408959.9     -19936.236      166.284        124.98003    
     87600   13.128433     -3409595.3      653.37754     -3408941.9     -19801.166      166.244        126.44528    
     87800   13.13194      -3409572.8      653.5521      -3408919.3     -19724.951      166.204        123.16087    
     88000   13.13298      -3409552.8      653.60383     -3408899.2     -19657.641      166.164        122.19152    
     88200   13.092383     -3409534.1      651.58343     -3408882.5     -19764.004      166.124        124.7951     
     88400   13.146415     -3409517.4      654.27248     -3408863.1     -19928.84       166.084        124.93983    
     88600   13.165684     -3409504.5      655.23145     -3408849.2     -20098.646      166.044        130.88202    
     88800   13.294319     -3409488.9      661.63339     -3408827.3     -20337.467      166.004        129.15824    
     89000   13.373018     -3409475.1      665.55008     -3408809.5     -20593.708      165.964        131.61766    
     89200   13.502624     -3409462.4      672.00033     -3408790.4     -20832.003      165.924        132.82465    
     89400   13.872098     -3409461.3      690.38838     -3408770.9     -21178.572      165.884        133.81972    
     89600   14.350048     -3409465.1      714.17502     -3408750.9     -21535.839      165.844        133.88854    
     89800   14.593011     -3409461.8      726.26685     -3408735.6     -21855.815      165.804        138.8773     
     90000   15.053369     -3409461.6      749.17802     -3408712.4     -22073.454      165.764        136.45747    
     90200   15.50197      -3409447.3      771.50402     -3408675.8     -22260.793      165.724        119.55088    
     90400   16.087239     -3409443.5      800.63179     -3408642.9     -22274.223      165.684        105.37669    
     90600   16.487448     -3409448        820.54941     -3408627.4     -22265.221      165.644        107.64203    
     90800   16.696759     -3409444        830.96644     -3408613       -22124.32       165.604        111.47853    
     91000   16.90688      -3409433.7      841.42379     -3408592.3     -22043.389      165.564        109.0366     
     91200   16.972252     -3409424        844.67722     -3408579.3     -21940.559      165.524        114.70303    
     91400   17.070245     -3409408.4      849.55413     -3408558.9     -21745.235      165.484        113.34947    
     91600   17.268714     -3409394.4      859.4316      -3408534.9     -21563.5        165.444        107.8432     
     91800   17.28706      -3409377.6      860.34465     -3408517.3     -21482.46       165.404        108.14682    
     92000   17.446352     -3409367.5      868.27228     -3408499.2     -21143.202      165.364        108.01334    
     92200   17.735243     -3409365.2      882.64987     -3408482.5     -20859.805      165.324        109.45616    
     92400   17.533932     -3409340.7      872.63097     -3408468.1     -20690.792      165.284        113.23937    
     92600   17.719004     -3409325.6      881.84166     -3408443.8     -20558.085      165.244        107.01411    
     92800   17.796685     -3409311.9      885.70773     -3408426.2     -20575.642      165.204        107.0899     
     93000   17.766689     -3409291.5      884.21487     -3408407.3     -20626.842      165.164        105.48503    
     93200   17.858056     -3409281.7      888.76205     -3408393       -20716.769      165.124        108.8224     
     93400   17.863978     -3409267.6      889.05677     -3408378.5     -20682.949      165.084        112.40067    
     93600   17.935764     -3409255.1      892.62942     -3408362.4     -20610.631      165.044        114.97287    
     93800   18.121933     -3409248.2      901.89468     -3408346.3     -20637.832      165.004        117.66262    
     94000   18.179698     -3409235        904.76956     -3408330.2     -20762.052      164.964        120.87914    
     94200   18.341061     -3409226.2      912.80027     -3408313.4     -20884.908      164.924        123.77975    
     94400   18.611496     -3409216.1      926.25931     -3408289.9     -20960.794      164.884        120.07074    
     94600   18.4064       -3409181.7      916.05207     -3408265.6     -21118.55       164.844        114.86269    
     94800   18.329586     -3409163.3      912.22921     -3408251       -21288.239      164.804        119.4453     
     95000   18.437688     -3409152.1      917.60923     -3408234.4     -21395.015      164.764        122.19055    
     95200   18.53526      -3409141.1      922.46523     -3408218.6     -21332.403      164.724        126.17424    
     95400   18.626569     -3409133        927.0095      -3408206       -21229.811      164.684        134.02384    
     95600   18.567287     -3409112.4      924.05911     -3408188.3     -20888.947      164.644        137.57457    
     95800   18.666938     -3409097.2      929.01857     -3408168.2     -20504.991      164.604        139.10117    
     96000   18.717505     -3409074.1      931.53518     -3408142.6     -20303.664      164.564        135.20571    
     96200   18.775794     -3409047.5      934.43616     -3408113       -20249.651      164.524        126.56522    
     96400   19.081194     -3409036.7      949.63533     -3408087.1     -20089.005      164.484        120.91259    
     96600   19.489312     -3409030        969.94657     -3408060.1     -19992.996      164.444        113.22199    
     96800   19.474828     -3409011.9      969.22574     -3408042.7     -19847.71       164.404        115.2043     
     97000   19.736702     -3409004.8      982.25873     -3408022.5     -19881.368      164.364        114.43688    
     97200   20.088069     -3409004        999.74558     -3408004.2     -19752.327      164.324        115.89266    
     97400   20.462881     -3408990.8      1018.3993     -3407972.4     -19610.13       164.284        103.10867    
     97600   20.880661     -3408994.6      1039.1914     -3407955.5     -19473.167      164.244        104.89206    
     97800   21.254928     -3408994.1      1057.818      -3407936.3     -19473.592      164.204        104.33971    
     98000   21.471772     -3408990.9      1068.6099     -3407922.2     -19639.833      164.164        109.10504    
     98200   21.785336     -3408988.9      1084.2154     -3407904.7     -19962.717      164.124        110.87527    
     98400   22.029847     -3408986.6      1096.3842     -3407890.2     -20399.698      164.084        116.0718     
     98600   22.015932     -3408959.9      1095.6917     -3407864.2     -20751.758      164.044        109.81074    
     98800   22.400434     -3408963.3      1114.8277     -3407848.4     -20983.719      164.004        113.44078    
     99000   22.584716     -3408952.1      1123.9991     -3407828.1     -21173.672      163.964        112.47882    
     99200   22.895719     -3408944.9      1139.4771     -3407805.4     -21216.956      163.924        108.47292    
     99400   23.111378     -3408936.1      1150.21       -3407785.9     -21226.189      163.884        107.29574    
     99600   23.366227     -3408935.1      1162.8934     -3407772.2     -21178.608      163.844        112.1054     
     99800   23.545475     -3408932.9      1171.8142     -3407761.1     -21114.422      163.804        120.27418    
    100000   23.621877     -3408920.6      1175.6166     -3407745       -21095.551      163.764        124.56935    
    100200   23.637772     -3408896.1      1176.4077     -3407719.6     -21130.069      163.724        119.22776    
    100400   23.643818     -3408874.9      1176.7086     -3407698.2     -21089.475      163.684        117.33542    
    100600   23.847411     -3408865.9      1186.841      -3407679.1     -20785.4        163.644        117.83622    
    100800   24.205722     -3408866        1204.6735     -3407661.4     -20319.717      163.604        119.52649    
    101000   24.285697     -3408849.3      1208.6537     -3407640.7     -19898.315      163.564        118.05801    
    101200   24.248778     -3408829        1206.8163     -3407622.2     -19449.135      163.524        118.78506    
    101400   24.212949     -3408806.3      1205.0332     -3407601.3     -19091.729      163.484        117.31371    
    101600   24.320695     -3408797.2      1210.3955     -3407586.8     -18966.258      163.444        122.09235    
    101800   24.226285     -3408777.1      1205.6969     -3407571.4     -18786.613      163.404        126.55161    
    102000   24.219239     -3408757.7      1205.3462     -3407552.3     -18562.52       163.364        127.61386    
    102200   24.215276     -3408743        1205.149      -3407537.9     -18354.517      163.324        133.80747    
    102400   24.262315     -3408724.5      1207.49       -3407517       -18153.792      163.284        133.80073    
    102600   24.333709     -3408707.6      1211.0432     -3407496.5     -18039.604      163.244        134.36753    
    102800   24.426116     -3408692.8      1215.6421     -3407477.1     -18023.734      163.204        135.83498    
    103000   24.560307     -3408679.3      1222.3205     -3407456.9     -18040.377      163.164        136.59089    
    103200   24.476338     -3408651.8      1218.1416     -3407433.7     -18126.781      163.124        134.38801    
    103400   24.412251     -3408627.4      1214.9521     -3407412.5     -18422.887      163.084        134.07292    
    103600   24.450331     -3408606.9      1216.8472     -3407390.1     -18707.935      163.044        132.55542    
    103800   24.360563     -3408586.8      1212.3797     -3407374.4     -19089.125      163.004        137.83212    
    104000   24.346965     -3408569.3      1211.7029     -3407357.6     -19237.978      162.964        142.33974    
    104200   24.371539     -3408555.1      1212.9259     -3407342.2     -19211.614      162.924        148.9366     
    104400   24.466113     -3408541.6      1217.6327     -3407323.9     -19137.716      162.884        153.64108    
    104600   24.569932     -3408524.9      1222.7995     -3407302.1     -19205.617      162.844        154.87139    
    104800   24.521616     -3408493.8      1220.395      -3407273.4     -19342.827      162.804        149.18128    
    105000   24.732103     -3408476.3      1230.8705     -3407245.4     -19330.047      162.764        143.68938    
    105200   25.177454     -3408462.7      1253.0348     -3407209.7     -19297.28       162.724        129.72419    
    105400   25.586853     -3408450.6      1273.4098     -3407177.1     -19196.408      162.684        117.70528    
    105600   25.97182      -3408447.6      1292.5689     -3407155.1     -19335.97       162.644        115.58305    
    105800   26.319087     -3408448.2      1309.8517     -3407138.4     -19291.949      162.604        118.31013    
    106000   26.616083     -3408444.9      1324.6326     -3407120.2     -19035.383      162.564        119.68618    
    106200   27.113216     -3408449.4      1349.374      -3407100       -18783.382      162.524        119.11293    
    106400   27.293872     -3408434        1358.3649     -3407075.7     -18437.121      162.484        113.5813     
[...]
    319400   49.634853     -3408267        2470.2337     -3405796.8     -25471.273      192.8212       0            
    319600   49.62274      -3408266.7      2469.6309     -3405797.1     -25350.806      192.8612       0            
    319800   49.552999     -3408262.6      2466.16       -3405796.4     -25221.159      192.9012       0            
    320000   49.586262     -3408264        2467.8155     -3405796.1     -25109.68       192.9412       0            
    320200   49.569709     -3408262.5      2466.9917     -3405795.5     -24997.477      192.9812       0            
    320400   49.626571     -3408264.6      2469.8216     -3405794.8     -24999.162      193.0212       0            
    320600   49.551652     -3408260.7      2466.093      -3405794.6     -25083.665      193.0612       0            
    320800   49.606385     -3408264.1      2468.8169     -3405795.3     -25202.232      193.1012       0            
    321000   49.537295     -3408260.7      2465.3785     -3405795.3     -25296.156      193.1412       0            
    321200   49.554621     -3408260.9      2466.2407     -3405794.7     -25421.223      193.1812       0            
    321400   49.592572     -3408262.9      2468.1295     -3405794.8     -25632.359      193.2212       0            
    321600   49.613599     -3408263.4      2469.176      -3405794.2     -25909.8        193.2612       0            
    321800   49.524967     -3408258.7      2464.7649     -3405793.9     -26128.157      193.3012       0            
    322000   49.578461     -3408261.1      2467.4273     -3405793.7     -26273.35       193.3412       0            
    322200   49.567863     -3408260.2      2466.8998     -3405793.3     -26357.155      193.3812       0            
    322400   49.57101      -3408260.1      2467.0564     -3405793       -26473.076      193.4212       0            
    322600   49.583544     -3408260.7      2467.6802     -3405793       -26542.27       193.4612       0            
    322800   49.464532     -3408254.5      2461.7572     -3405792.8     -26594.914      193.5012       0            
    323000   49.570347     -3408259.2      2467.0234     -3405792.2     -26563.081      193.5412       0            
    323200   49.568513     -3408259.3      2466.9321     -3405792.3     -26418.125      193.5812       0            
    323400   49.553127     -3408258.5      2466.1664     -3405792.3     -26268.2        193.6212       0            
    323600   49.683392     -3408265.2      2472.6494     -3405792.6     -26135.692      193.6612       0            
    323800   49.576487     -3408259.8      2467.329      -3405792.4     -25958.413      193.7012       0            
    324000   49.564918     -3408259.8      2466.7532     -3405793.1     -25769.213      193.7412       0            
    324200   49.600523     -3408261.5      2468.5252     -3405793       -25472.217      193.7812       0            
    324400   49.537842     -3408258.5      2465.4057     -3405793.1     -25293.409      193.8212       0            
    324600   49.649669     -3408263.6      2470.9711     -3405792.6     -25171.373      193.8612       0            
    324800   49.586702     -3408259.9      2467.8374     -3405792       -25082.374      193.9012       0            
    325000   49.574878     -3408259.1      2467.2489     -3405791.9     -25029.954      193.9412       0            
    325200   49.552075     -3408258.1      2466.1141     -3405792       -25015.907      193.9812       0            
    325400   49.581561     -3408259.4      2467.5815     -3405791.9     -25000.974      194.0212       0            
    325600   49.50649      -3408255.6      2463.8454     -3405791.7     -25105.338      194.0612       0            
    325800   49.692314     -3408264.4      2473.0935     -3405791.3     -25320.258      194.1012       0            
    326000   49.631513     -3408261.2      2470.0675     -3405791.1     -25471.817      194.1412       0            
    326200   49.623301     -3408260.7      2469.6589     -3405791       -25649.204      194.1812       0            
    326400   49.617926     -3408260.1      2469.3914     -3405790.7     -25817.132      194.2212       0            
    326600   49.610086     -3408259.2      2469.0012     -3405790.2     -26005.192      194.2612       0            
    326800   49.590945     -3408257.5      2468.0485     -3405789.5     -26296.336      194.3012       0            
    327000   49.609338     -3408258.2      2468.9639     -3405789.3     -26446.624      194.3412       0            
    327200   49.572513     -3408256.1      2467.1312     -3405788.9     -26517.066      194.3812       0            
    327400   49.584045     -3408256.1      2467.7051     -3405788.4     -26555.664      194.4212       0            
    327600   49.559146     -3408255.1      2466.466      -3405788.7     -26534.833      194.4612       0            
    327800   49.628097     -3408258.5      2469.8975     -3405788.6     -26515.249      194.5012       0            
    328000   49.567527     -3408255.1      2466.8831     -3405788.2     -26471.428      194.5412       0            
    328200   49.606645     -3408256.6      2468.8299     -3405787.7     -26325.437      194.5812       0            
    328400   49.552411     -3408253.5      2466.1308     -3405787.3     -26058.451      194.6212       0            
    328600   49.69035      -3408260.3      2472.9957     -3405787.3     -25866.242      194.6612       0            
    328800   49.712139     -3408261.2      2474.0802     -3405787.1     -25715.433      194.7012       0            
    329000   49.622131     -3408256.1      2469.6006     -3405786.5     -25586.612      194.7412       0            
    329200   49.662795     -3408258.1      2471.6244     -3405786.5     -25375.88       194.7812       0            
    329400   49.60984      -3408255.5      2468.9889     -3405786.5     -25134.125      194.8212       0            
    329600   49.700321     -3408259.8      2473.492      -3405786.3     -25052.115      194.8612       0            
    329800   49.633797     -3408256.8      2470.1812     -3405786.6     -25036.621      194.9012       0            
    330000   49.702457     -3408260.4      2473.5983     -3405786.8     -25052.97       194.9412       0            
    330200   49.634637     -3408256.8      2470.223      -3405786.6     -25092.402      194.9812       0            
    330400   49.646244     -3408257        2470.8006     -3405786.2     -25128.786      195.0212       0            
    330600   49.63275      -3408255.6      2470.1291     -3405785.5     -25212.331      195.0612       0            
    330800   49.620873     -3408255.2      2469.538      -3405785.7     -25422.177      195.1012       0            
    331000   49.570562     -3408252.7      2467.0341     -3405785.6     -25671.632      195.1412       0            
    331200   49.628092     -3408255.2      2469.8973     -3405785.3     -25843.603      195.1812       0            
    331400   49.650419     -3408256.1      2471.0084     -3405785.1     -26005.08       195.2212       0            
    331600   49.707131     -3408258.8      2473.8309     -3405785       -26102.348      195.2612       0            
    331800   49.71937      -3408259.3      2474.44       -3405784.9     -26314.529      195.3012       0            
    332000   49.679706     -3408257.1      2472.466      -3405784.6     -26513.99       195.3412       0            
    332200   49.709752     -3408258.2      2473.9613     -3405784.2     -26566.641      195.3812       0            
    332400   49.712853     -3408258.3      2474.1157     -3405784.2     -26596.815      195.4212       0            
    332600   49.588906     -3408251.6      2467.9471     -3405783.6     -26543.109      195.4612       0            
    332800   49.681237     -3408256.3      2472.5422     -3405783.7     -26476.685      195.5012       0            
    333000   49.691901     -3408256.6      2473.0729     -3405783.5     -26327.187      195.5412       0            
    333200   49.668933     -3408255        2471.9299     -3405783       -26192.015      195.5812       0            
    333400   49.769377     -3408260        2476.9288     -3405783.1     -25951.77       195.6212       0            
    333600   49.759926     -3408259.6      2476.4584     -3405783.1     -25726.325      195.6612       0            
    333800   49.682912     -3408255        2472.6256     -3405782.4     -25533.101      195.7012       0            
    334000   49.573821     -3408249.5      2467.1963     -3405782.3     -25361.613      195.7412       0            
    334200   49.676085     -3408254.6      2472.2858     -3405782.3     -25279.491      195.7812       0            
    334400   49.666571     -3408253.4      2471.8123     -3405781.6     -25090.634      195.8212       0            
    334600   49.685241     -3408254.3      2472.7415     -3405781.6     -24981.923      195.8612       0            
    334800   49.76727      -3408258.6      2476.8239     -3405781.7     -24981.992      195.9012       0            
    335000   49.683889     -3408253.6      2472.6742     -3405780.9     -25008.294      195.9412       0            
    335200   49.781363     -3408258.2      2477.5253     -3405780.7     -25104.703      195.9812       0            
    335400   49.721589     -3408254.9      2474.5505     -3405780.4     -25225.335      196.0212       0            
    335600   49.741698     -3408256.3      2475.5512     -3405780.7     -25374.122      196.0612       0            
    335800   49.699196     -3408253.7      2473.436      -3405780.3     -25531.485      196.1012       0            
    336000   49.755987     -3408256.6      2476.2624     -3405780.4     -25787.472      196.1412       0            
    336200   49.766121     -3408256.8      2476.7667     -3405780.1     -26052.399      196.1812       0            
    336400   49.72539      -3408254.8      2474.7396     -3405780.1     -26234.784      196.2212       0            
    336600   49.712422     -3408254.2      2474.0942     -3405780.1     -26344.518      196.2612       0            
    336800   49.723175     -3408254.6      2474.6294     -3405779.9     -26440.819      196.3012       0            
    337000   49.674406     -3408252        2472.2023     -3405779.8     -26561.586      196.3412       0            
    337200   49.701401     -3408252.7      2473.5457     -3405779.1     -26612.459      196.3812       0            
    337400   49.769874     -3408256        2476.9535     -3405779       -26572.32       196.4212       0            
    337600   49.698138     -3408252.2      2473.3833     -3405778.8     -26474.811      196.4612       0            
    337800   49.764948     -3408255.3      2476.7084     -3405778.6     -26330.4        196.5012       0            
    338000   49.735301     -3408253.5      2475.2329     -3405778.3     -26166.23       196.5412       0            
    338200   49.787553     -3408255.8      2477.8334     -3405778       -26006.981      196.5812       0            
    338400   49.723614     -3408252.6      2474.6512     -3405778       -25802.101      196.6212       0            
    338600   49.815569     -3408256.7      2479.2276     -3405777.5     -25574.659      196.6612       0            
    338800   49.759585     -3408253.6      2476.4415     -3405777.2     -25320.295      196.7012       0            
    339000   49.751645     -3408252.6      2476.0463     -3405776.6     -25197.258      196.7412       0            
    339200   49.805534     -3408255.6      2478.7282     -3405776.9     -25126.438      196.7812       0            
    339400   49.720614     -3408251.1      2474.5019     -3405776.6     -25087.774      196.8212       0            
    339600   49.68673      -3408248.7      2472.8156     -3405775.9     -24986.306      196.8612       0            
    339800   49.808529     -3408254.6      2478.8773     -3405775.7     -24989.793      196.9012       0            
    340000   49.713917     -3408249.6      2474.1686     -3405775.5     -25110.525      196.9412       0            
    340200   49.834561     -3408255.1      2480.1729     -3405775       -25237.788      196.9812       0            
    340400   49.748614     -3408250.1      2475.8954     -3405774.2     -25402.577      197.0212       0            
    340600   49.822711     -3408254        2479.5831     -3405774.4     -25550.221      197.0612       0            
    340800   49.708187     -3408248.4      2473.8835     -3405774.5     -25740.366      197.1012       0            
    341000   49.829169     -3408254.2      2479.9045     -3405774.3     -25935.03       197.1412       0            
    341200   49.783968     -3408252.3      2477.6549     -3405774.6     -26162.652      197.1812       0            
    341400   49.693491     -3408247.1      2473.1521     -3405773.9     -26313.875      197.2212       0            
    341600   49.750572     -3408249.4      2475.9929     -3405773.4     -26424.589      197.2612       0            
    341800   49.799114     -3408251.6      2478.4087     -3405773.2     -26467.912      197.3012       0            
    342000   49.778073     -3408250.1      2477.3616     -3405772.7     -26504.862      197.3412       0            
    342200   49.725918     -3408247.3      2474.7659     -3405772.5     -26554.823      197.3812       0            
    342400   49.80515      -3408251.2      2478.7091     -3405772.5     -26562.133      197.4212       0            
    342600   49.7773       -3408249.7      2477.3231     -3405772.3     -26376.094      197.4612       0            
    342800   49.794135     -3408250.5      2478.1609     -3405772.3     -26206.785      197.5012       0            
    343000   49.755516     -3408248.8      2476.2389     -3405772.6     -26007.392      197.5412       0            
    343200   49.735206     -3408247.1      2475.2281     -3405771.8     -25826.123      197.5812       0            
    343400   49.761044     -3408247.9      2476.514      -3405771.4     -25663.55       197.6212       0            
    343600   49.877499     -3408253.4      2482.3098     -3405771.1     -25465.316      197.6612       0            
    343800   49.766874     -3408247.8      2476.8042     -3405771       -25275.018      197.7012       0            
    344000   49.838157     -3408250.9      2480.3518     -3405770.5     -25101.042      197.7412       0            
    344200   49.858694     -3408251.8      2481.3739     -3405770.4     -24998.695      197.7812       0            
    344400   49.898368     -3408253.2      2483.3484     -3405769.9     -25029.681      197.8212       0            
    344600   49.817262     -3408249.4      2479.3119     -3405770.1     -25030.78       197.8612       0            
    344800   49.909746     -3408253.9      2483.9147     -3405770       -25045.787      197.9012       0            
    345000   49.832742     -3408250.3      2480.0823     -3405770.2     -25100.673      197.9412       0            
    345200   49.88336      -3408252.3      2482.6015     -3405769.7     -25359.483      197.9812       0            
    345400   49.864748     -3408251.2      2481.6752     -3405769.5     -25538.92       198.0212       0            
    345600   49.89657      -3408252.7      2483.2589     -3405769.4     -25751.119      198.0612       0            
    345800   49.911619     -3408253.3      2484.0079     -3405769.3     -25953.324      198.1012       0            
    346000   49.84087      -3408249.4      2480.4869     -3405768.9     -26118.072      198.1412       0            
    346200   49.906611     -3408252.4      2483.7586     -3405768.7     -26316.717      198.1812       0            
    346400   49.812356     -3408247        2479.0678     -3405768       -26441.416      198.2212       0            
    346600   49.908687     -3408251.7      2483.862      -3405767.8     -26592.864      198.2612       0            
    346800   49.83496      -3408247.6      2480.1927     -3405767.4     -26573.143      198.3012       0            
    347000   49.869772     -3408248.7      2481.9253     -3405766.8     -26527.185      198.3412       0            
    347057   49.84513      -3408247.2      2480.6988     -3405766.6     -26492.034      198.3526       0            
Loop time of 3369.06 on 62 procs for 200000 steps with 385024 atoms

Performance: 10.258 ns/day, 2.340 hours/ns, 59.364 timesteps/s, 22.856 Matom-step/s
99.4% CPU use with 62 MPI tasks x 1 OpenMP threads

MPI task timing breakdown:
Section |  min time  |  avg time  |  max time  |%varavg| %total
---------------------------------------------------------------
Pair    | 1863.4     | 2038.9     | 2284.6     | 211.1 | 60.52
Neigh   | 1.0883     | 1.2025     | 1.3655     |   6.2 |  0.04
Comm    | 157.21     | 292.45     | 440.66     | 556.2 |  8.68
Output  | 812.05     | 819.77     | 826.78     |  15.3 | 24.33
Modify  | 32.935     | 35.553     | 42.229     |  36.8 |  1.06
Other   |            | 181.2      |            |       |  5.38

Nlocal:        6210.06 ave        7471 max        5964 min
Histogram: 51 1 0 2 0 0 1 1 1 5
Nghost:        17056.9 ave       18077 max       14798 min
Histogram: 6 2 0 4 10 2 2 3 2 31
Neighs:         341267 ave      409713 max      321840 min
Histogram: 22 27 3 1 1 0 0 2 1 5

Total # of neighbors = 21158535
Ave neighs/atom = 54.953808
Neighbor list builds = 108
Dangerous builds = 0


# ------------------------ Final Relaxation --------------------------
print "Final relaxation.........................................................................................."
Final relaxation..........................................................................................
unfix indenter_unload
thermo_style custom step temp pe ke etotal press
run 1000
Per MPI rank memory allocation (min/avg/max) = 9.445 | 9.551 | 9.975 Mbytes
   Step          Temp          PotEng         KinEng         TotEng         Press     
    347057   49.84513      -3408247.2      2480.6988     -3405766.6     -26492.034    
    347200   49.788325     -3408244        2477.8718     -3405766.1     -26448.69     
    347400   49.826605     -3408245.7      2479.7769     -3405765.9     -26412.345    
    347600   49.899303     -3408248.6      2483.3949     -3405765.2     -26255.513    
    347800   49.868035     -3408247.1      2481.8388     -3405765.3     -26003.383    
    348000   49.823336     -3408244.7      2479.6142     -3405765.1     -25812.842    
    348057   49.916354     -3408249.1      2484.2435     -3405764.9     -25735.341    
Loop time of 14.8225 on 62 procs for 1000 steps with 385024 atoms

Performance: 11.658 ns/day, 2.059 hours/ns, 67.465 timesteps/s, 25.976 Matom-step/s
99.5% CPU use with 62 MPI tasks x 1 OpenMP threads

MPI task timing breakdown:
Section |  min time  |  avg time  |  max time  |%varavg| %total
---------------------------------------------------------------
Pair    | 9.608      | 10.137     | 11.605     |  15.6 | 68.39
Neigh   | 0          | 0          | 0          |   0.0 |  0.00
Comm    | 0.74871    | 1.4469     | 2.4042     |  42.8 |  9.76
Output  | 2.1571     | 2.1891     | 2.2211     |   1.3 | 14.77
Modify  | 0.10193    | 0.11194    | 0.13395    |   2.4 |  0.76
Other   |            | 0.938      |            |       |  6.33

Nlocal:        6210.06 ave        7404 max        5973 min
Histogram: 48 4 2 0 0 0 0 2 0 6
Nghost:        17032.5 ave       18065 max       14727 min
Histogram: 6 2 0 3 12 1 4 2 3 29
Neighs:         341265 ave      408092 max      320600 min
Histogram: 20 25 6 3 0 0 0 1 1 6

Total # of neighbors = 21158422
Ave neighs/atom = 54.953515
Neighbor list builds = 0
Dangerous builds = 0

undump trajectory
print "-----------------------Nanoindentation completed---------------------"
-----------------------Nanoindentation completed---------------------
Total wall time: 1:36:02
