units metal
dimension 3
boundary p p f
atom_style atomic

# Tungsten parameters
variable lattice_param equal 3.165    # W BCC lattice
variable box_x equal 64               # X dimension (unit cells)
variable box_y equal 64               # Y dimension (unit cells)
variable box_z equal 47               # Z dimension (unit cells)
variable indent_radius equal 9.5      # Indenter radius (Å)
variable force_constant equal 10.0     # eV/Å²
variable indent_velocity equal 0.10  # Å/ps
variable indent_velocity_u equal 0.10 # Å/ps
variable max_indent equal 25.0        # Max penetration depth (Å)
variable temperature equal 10.0
variable timestep_val equal 0.002     # 2 fs timestep

# Create W single crystal
lattice bcc ${lattice_param} orient x 1 0 0 orient y 0 1 0 orient z 0 0 1
lattice bcc 3.165 orient x 1 0 0 orient y 0 1 0 orient z 0 0 1
Lattice spacing in x,y,z = 3.165 3.165 3.165
region simbox block 0 ${box_x} 0 ${box_y} 0 ${box_z}
region simbox block 0 64 0 ${box_y} 0 ${box_z}
region simbox block 0 64 0 64 0 ${box_z}
region simbox block 0 64 0 64 0 47
create_box 1 simbox
Created orthogonal box = (0 0 0) to (202.56 202.56 148.755)
  2 by 31 by 1 MPI processor grid
create_atoms 1 box
Created 385024 atoms
  using lattice units in orthogonal box = (0 0 0) to (202.56 202.56 148.755)
  create_atoms CPU = 0.001 seconds

# Atomic properties
mass 1 183.84

# EAM potential for W
pair_style eam/alloy
pair_coeff * * potential-WHHe-EAM1.eam.alloy W

# ------------------ Dislocation Loop Creation ------------------
print "Inserting three interstitial dislocation loops (Banisalman et al. 2022)"
Inserting three interstitial dislocation loops (Banisalman et al. 2022)
variable loop_radius equal "5 / v_lattice_param"

# Loop 1
variable loop1_x equal "42.0 / v_lattice_param"
variable loop1_y equal "42.0 / v_lattice_param"
variable loop1_z equal "128.0 / v_lattice_param"
variable bx1 equal "v_lattice_param"
variable by1 equal "0.0"
variable bz1 equal "0.0"
variable loop1_zlo equal "v_loop1_z - 0.5"
variable loop1_zhi equal "v_loop1_z + 0.5"
region loop1_region cylinder z ${loop1_x} ${loop1_y} ${loop_radius} ${loop1_zlo} ${loop1_zhi} units lattice
region loop1_region cylinder z 13.2701421800948 ${loop1_y} ${loop_radius} ${loop1_zlo} ${loop1_zhi} units lattice
region loop1_region cylinder z 13.2701421800948 13.2701421800948 ${loop_radius} ${loop1_zlo} ${loop1_zhi} units lattice
region loop1_region cylinder z 13.2701421800948 13.2701421800948 1.57977883096367 ${loop1_zlo} ${loop1_zhi} units lattice
region loop1_region cylinder z 13.2701421800948 13.2701421800948 1.57977883096367 39.9423380726698 ${loop1_zhi} units lattice
region loop1_region cylinder z 13.2701421800948 13.2701421800948 1.57977883096367 39.9423380726698 40.9423380726698 units lattice
group loop1_atoms region loop1_region
16 atoms in group loop1_atoms

# Loop 2
variable loop2_x equal "76.0 / v_lattice_param"
variable loop2_y equal "76.0 / v_lattice_param"
variable loop2_z equal "134.0 / v_lattice_param"
variable bx2 equal "v_lattice_param"
variable by2 equal "0.0"
variable bz2 equal "0.0"
variable loop2_zlo equal "v_loop2_z - 0.5"
variable loop2_zhi equal "v_loop2_z + 0.5"
region loop2_region cylinder z ${loop2_x} ${loop2_y} ${loop_radius} ${loop2_zlo} ${loop2_zhi} units lattice
region loop2_region cylinder z 24.0126382306477 ${loop2_y} ${loop_radius} ${loop2_zlo} ${loop2_zhi} units lattice
region loop2_region cylinder z 24.0126382306477 24.0126382306477 ${loop_radius} ${loop2_zlo} ${loop2_zhi} units lattice
region loop2_region cylinder z 24.0126382306477 24.0126382306477 1.57977883096367 ${loop2_zlo} ${loop2_zhi} units lattice
region loop2_region cylinder z 24.0126382306477 24.0126382306477 1.57977883096367 41.8380726698262 ${loop2_zhi} units lattice
region loop2_region cylinder z 24.0126382306477 24.0126382306477 1.57977883096367 41.8380726698262 42.8380726698262 units lattice
group loop2_atoms region loop2_region
17 atoms in group loop2_atoms

# Loop 3
variable loop3_x equal "110.0 / v_lattice_param"
variable loop3_y equal "110.0 / v_lattice_param"
variable loop3_z equal "128.0 / v_lattice_param"
variable bx3 equal "v_lattice_param"
variable by3 equal "0.0"
variable bz3 equal "0.0"
variable loop3_zlo equal "v_loop3_z - 0.5"
variable loop3_zhi equal "v_loop3_z + 0.5"
region loop3_region cylinder z ${loop3_x} ${loop3_y} ${loop_radius} ${loop3_zlo} ${loop3_zhi} units lattice
region loop3_region cylinder z 34.7551342812006 ${loop3_y} ${loop_radius} ${loop3_zlo} ${loop3_zhi} units lattice
region loop3_region cylinder z 34.7551342812006 34.7551342812006 ${loop_radius} ${loop3_zlo} ${loop3_zhi} units lattice
region loop3_region cylinder z 34.7551342812006 34.7551342812006 1.57977883096367 ${loop3_zlo} ${loop3_zhi} units lattice
region loop3_region cylinder z 34.7551342812006 34.7551342812006 1.57977883096367 39.9423380726698 ${loop3_zhi} units lattice
region loop3_region cylinder z 34.7551342812006 34.7551342812006 1.57977883096367 39.9423380726698 40.9423380726698 units lattice
group loop3_atoms region loop3_region
16 atoms in group loop3_atoms

# Displace loops (FIXED units to lattice)
displace_atoms loop1_atoms move ${bx1} ${by1} ${bz1} units lattice
displace_atoms loop1_atoms move 3.165 ${by1} ${bz1} units lattice
displace_atoms loop1_atoms move 3.165 0 ${bz1} units lattice
displace_atoms loop1_atoms move 3.165 0 0 units lattice
Displacing atoms ...
displace_atoms loop2_atoms move ${bx2} ${by2} ${bz2} units lattice
displace_atoms loop2_atoms move 3.165 ${by2} ${bz2} units lattice
displace_atoms loop2_atoms move 3.165 0 ${bz2} units lattice
displace_atoms loop2_atoms move 3.165 0 0 units lattice
Displacing atoms ...
displace_atoms loop3_atoms move ${bx3} ${by3} ${bz3} units lattice
displace_atoms loop3_atoms move 3.165 ${by3} ${bz3} units lattice
displace_atoms loop3_atoms move 3.165 0 ${bz3} units lattice
displace_atoms loop3_atoms move 3.165 0 0 units lattice
Displacing atoms ...

print "Energy minimization after loop creation(1)------------------------------------------------------------------"
Energy minimization after loop creation(1)------------------------------------------------------------------
minimize 1.0e-9 1.0e-11 5000 50000
Neighbor list info ...
  update: every = 1 steps, delay = 0 steps, check = yes
  max neighbors/atom: 2000, page size: 100000
  master list distance cutoff = 7.4604375
  ghost atom cutoff = 7.4604375
  binsize = 3.7302188, bins = 55 55 40
  1 neighbor lists, perpetual/occasional/extra = 1 0 0
  (1) pair eam/alloy, perpetual
      attributes: half, newton on
      pair build: half/bin/atomonly/newton
      stencil: half/bin/3d
      bin: standard
Per MPI rank memory allocation (min/avg/max) = 10.4 | 10.5 | 10.93 Mbytes
   Step          Temp          E_pair         E_mol          TotEng         Press     
         0   0             -3405611.9      0             -3405611.9     -74853.218    
       263   0             -3411097.8      0             -3411097.8     -35315.759    
Loop time of 4.68479 on 62 procs for 263 steps with 385024 atoms

99.4% CPU use with 62 MPI tasks x 1 OpenMP threads

Minimization stats:
  Stopping criterion = energy tolerance
  Energy initial, next-to-last, final = 
     -3405611.91916021  -3411097.79445796  -3411097.79457635
  Force two-norm initial, final = 815.40025 5.3621826
  Force max component initial, final = 86.741364 1.3637656
  Final line search alpha, max atom move = 0.16049153 0.21887283
  Iterations, force evaluations = 263 410

MPI task timing breakdown:
Section |  min time  |  avg time  |  max time  |%varavg| %total
---------------------------------------------------------------
Pair    | 3.9539     | 3.9678     | 3.9953     |   0.5 | 84.70
Neigh   | 0.080023   | 0.088579   | 0.10608    |   2.2 |  1.89
Comm    | 0.37915    | 0.46701    | 0.49159    |   3.5 |  9.97
Output  | 0          | 0          | 0          |   0.0 |  0.00
Modify  | 0          | 0          | 0          |   0.0 |  0.00
Other   |            | 0.1614     |            |       |  3.44

Nlocal:        6210.06 ave        7614 max        5920 min
Histogram: 36 17 0 1 0 0 0 0 3 5
Nghost:        17085.1 ave       18095 max       14664 min
Histogram: 8 0 0 1 14 3 0 0 0 36
Neighs:         341284 ave      418376 max      316911 min
Histogram: 16 27 10 1 0 0 0 0 3 5

Total # of neighbors = 21159578
Ave neighs/atom = 54.956517
Neighbor list builds = 11
Dangerous builds = 0

# Regions and groups
variable fix_height equal 2.0
variable thermo_height equal 20.0
region bottom_fix block INF INF INF INF 0 ${fix_height}
region bottom_fix block INF INF INF INF 0 2
region thermo_region block INF INF INF INF ${fix_height} ${thermo_height}
region thermo_region block INF INF INF INF 2 ${thermo_height}
region thermo_region block INF INF INF INF 2 20
region mobile_region block INF INF INF INF ${thermo_height} INF
region mobile_region block INF INF INF INF 20 INF

group bottom region bottom_fix
16384 atoms in group bottom
group thermo region thermo_region
147456 atoms in group thermo
group mobile region mobile_region
221184 atoms in group mobile

# Reflective walls to prevent atoms from escaping in z-direction
fix wall_bottom all wall/reflect zlo EDGE
fix wall_top all wall/reflect zhi EDGE

# Time integration
timestep ${timestep_val}
timestep 0.002

dump trajectory all atom 100 nanoindent_dislocation_loop.dump
dump_modify trajectory first yes

# Energy minimization(2)-----------------------------------------------------------------------------------
minimize 1.0e-9 1.0e-11 5000 50000
Per MPI rank memory allocation (min/avg/max) = 10.4 | 10.51 | 10.93 Mbytes
   Step          Temp          E_pair         E_mol          TotEng         Press     
       263   0             -3411097.8      0             -3411097.8     -35315.759    
      1646   0             -3411104.9      0             -3411104.9     -34360.401    
Loop time of 33.4192 on 62 procs for 1383 steps with 385024 atoms

99.6% CPU use with 62 MPI tasks x 1 OpenMP threads

Minimization stats:
  Stopping criterion = energy tolerance
  Energy initial, next-to-last, final = 
     -3411097.79457635  -3411104.92867845  -3411104.93208681
  Force two-norm initial, final = 5.3621826 3.6392197
  Force max component initial, final = 1.3637656 1.5508939
  Final line search alpha, max atom move = 0.064482959 0.10000622
  Iterations, force evaluations = 1383 2766

MPI task timing breakdown:
Section |  min time  |  avg time  |  max time  |%varavg| %total
---------------------------------------------------------------
Pair    | 28.539     | 28.626     | 28.819     |   1.4 | 85.66
Neigh   | 0          | 0          | 0          |   0.0 |  0.00
Comm    | 2.5045     | 2.9765     | 3.1295     |   8.3 |  8.91
Output  | 0.66837    | 0.72769    | 0.7872     |   4.1 |  2.18
Modify  | 0          | 0          | 0          |   0.0 |  0.00
Other   |            | 1.089      |            |       |  3.26

Nlocal:        6210.06 ave        7609 max        5920 min
Histogram: 38 15 0 0 0 2 0 0 2 5
Nghost:        17085.1 ave       18095 max       14669 min
Histogram: 7 0 2 0 15 2 0 0 0 36
Neighs:         341284 ave      418104 max      316987 min
Histogram: 15 28 10 0 0 1 1 0 2 5

Total # of neighbors = 21159577
Ave neighs/atom = 54.956514
Neighbor list builds = 0
Dangerous builds = 0

# Thermal equilibration
velocity all create ${temperature} 12345 mom yes rot no
velocity all create 10 12345 mom yes rot no
fix 1 thermo nvt temp ${temperature} ${temperature} $(50*dt)
fix 1 thermo nvt temp 10 ${temperature} $(50*dt)
fix 1 thermo nvt temp 10 10 $(50*dt)
fix 1 thermo nvt temp 10 10 0.10000000000000000555
thermo 100
thermo_style custom step temp pe ke etotal press vol
run 2000
Per MPI rank memory allocation (min/avg/max) = 9.445 | 9.549 | 9.97 Mbytes
   Step          Temp          PotEng         KinEng         TotEng         Press          Volume    
      1646   10            -3411104.9      497.68129     -3410607.3     -34273.307      6103500      
      1700   9.0037686     -3411049.9      448.10072     -3410601.8     -34291.026      6103500      
      1800   8.5381531     -3411001.6      424.9279      -3410576.6     -34326.436      6103500      
      1900   9.1120861     -3411000.6      453.49148     -3410547.1     -34312.522      6103500      
      2000   9.2939322     -3410975.4      462.54161     -3410512.8     -34327.407      6103500      
      2100   9.4722892     -3410949.1      471.41811     -3410477.6     -34330.966      6103500      
      2200   9.9603139     -3410939.8      495.70618     -3410444.1     -34338.27       6103500      
      2300   10.025348     -3410918        498.94279     -3410419.1     -34338.284      6103500      
      2400   10.319357     -3410922.8      513.57507     -3410409.2     -34344.435      6103500      
      2500   10.015498     -3410918.8      498.45258     -3410420.3     -34341.615      6103500      
      2600   10.118537     -3410924.4      503.58063     -3410420.8     -34343.979      6103500      
      2700   10.031737     -3410913.1      499.26076     -3410413.9     -34344.449      6103500      
      2800   10.069505     -3410917.1      501.14043     -3410416       -34348.11       6103500      
      2900   9.9779778     -3410916        496.58528     -3410419.4     -34346.383      6103500      
      3000   10.068154     -3410916.4      501.07319     -3410415.3     -34346.168      6103500      
      3100   10.040909     -3410916.6      499.71726     -3410416.9     -34346.786      6103500      
      3200   9.9788364     -3410917.3      496.62801     -3410420.7     -34345.415      6103500      
      3300   10.03257      -3410915.3      499.30225     -3410416       -34346.783      6103500      
      3400   10.006972     -3410912.6      498.02826     -3410414.5     -34346.895      6103500      
      3500   9.9978626     -3410916.3      497.57492     -3410418.7     -34346.499      6103500      
      3600   10.003885     -3410915.5      497.87466     -3410417.6     -34346.764      6103500      
      3646   10.034915     -3410915.5      499.41893     -3410416.1     -34347.135      6103500      
Loop time of 20.2945 on 62 procs for 2000 steps with 385024 atoms

Performance: 17.029 ns/day, 1.409 hours/ns, 98.549 timesteps/s, 37.944 Matom-step/s
99.7% CPU use with 62 MPI tasks x 1 OpenMP threads

MPI task timing breakdown:
Section |  min time  |  avg time  |  max time  |%varavg| %total
---------------------------------------------------------------
Pair    | 13.846     | 15.423     | 18.15      |  22.7 | 75.99
Neigh   | 0          | 0          | 0          |   0.0 |  0.00
Comm    | 1.3637     | 2.6798     | 4.3848     |  48.4 | 13.20
Output  | 0.088993   | 0.16515    | 0.24211    |  11.1 |  0.81
Modify  | 0.20033    | 1.6974     | 2.7215     |  63.9 |  8.36
Other   |            | 0.3295     |            |       |  1.62

Nlocal:        6210.06 ave        7610 max        5920 min
Histogram: 34 19 0 0 1 0 1 0 3 4
Nghost:        17085.2 ave       18095 max       14668 min
Histogram: 6 2 1 0 14 3 0 0 0 36
Neighs:         341284 ave      418516 max      316930 min
Histogram: 15 27 11 0 0 1 0 1 2 5

Total # of neighbors = 21159587
Ave neighs/atom = 54.95654
Neighbor list builds = 0
Dangerous builds = 0
unfix 1

fix 2 bottom setforce 0.0 0.0 0.0
# Energy minimization(3)------------------------------------------------------------------------------------
minimize 1.0e-9 1.0e-11 5000 50000
Per MPI rank memory allocation (min/avg/max) = 11.7 | 11.8 | 12.22 Mbytes
   Step          Temp          PotEng         KinEng         TotEng         Press          Volume    
      3646   10.034915     -3410915.5      499.41893     -3410416.1     -34347.135      6103500      
      3661   10.034915     -3411105        499.41893     -3410605.6     -34255.989      6103500      
Loop time of 0.377986 on 62 procs for 15 steps with 385024 atoms

99.7% CPU use with 62 MPI tasks x 1 OpenMP threads

Minimization stats:
  Stopping criterion = energy tolerance
  Energy initial, next-to-last, final = 
     -3410915.51137874  -3411104.97628969  -3411104.97741264
  Force two-norm initial, final = 68.245282 4.2947793
  Force max component initial, final = 1.5508939 1.38739
  Final line search alpha, max atom move = 0.19204414 0.26644012
  Iterations, force evaluations = 15 28

MPI task timing breakdown:
Section |  min time  |  avg time  |  max time  |%varavg| %total
---------------------------------------------------------------
Pair    | 0.32208    | 0.32298    | 0.32519    |   0.1 | 85.45
Neigh   | 0          | 0          | 0          |   0.0 |  0.00
Comm    | 0.026258   | 0.031524   | 0.033094   |   0.8 |  8.34
Output  | 0          | 0          | 0          |   0.0 |  0.00
Modify  | 0.00017541 | 0.00022273 | 0.00039917 |   0.0 |  0.06
Other   |            | 0.02326    |            |       |  6.15

Nlocal:        6210.06 ave        7578 max        5945 min
Histogram: 52 1 0 0 1 0 1 1 0 6
Nghost:        17076.1 ave       18072 max       14700 min
Histogram: 6 2 1 0 17 0 0 0 0 36
Neighs:         341284 ave      416759 max      319032 min
Histogram: 19 28 6 0 0 1 1 1 0 6

Total # of neighbors = 21159587
Ave neighs/atom = 54.95654
Neighbor list builds = 0
Dangerous builds = 0

# Add NVE integration for mobile group
fix integrator mobile nve

# Indenter setup
variable x_center equal 32.0
variable y_center equal 32.0
variable z_surface equal $(zhi)
variable z_surface equal 148.75499999999999545
variable z_indent_start equal $(v_z_surface + 35.0)
variable z_indent_start equal 183.75499999999999545
variable step0 equal step
variable z_indent equal "v_z_indent_start - v_indent_velocity * time"

# Thermostat and forces
fix fix_bottom bottom setforce 0.0 0.0 0.0
fix thermostat thermo langevin ${temperature} ${temperature} $(50*dt) 48279
fix thermostat thermo langevin 10 ${temperature} $(50*dt) 48279
fix thermostat thermo langevin 10 10 $(50*dt) 48279
fix thermostat thermo langevin 10 10 0.10000000000000000555 48279

fix indenter mobile indent ${force_constant} sphere ${x_center} ${y_center} v_z_indent ${indent_radius}
fix indenter mobile indent 10 sphere ${x_center} ${y_center} v_z_indent ${indent_radius}
fix indenter mobile indent 10 sphere 32 ${y_center} v_z_indent ${indent_radius}
fix indenter mobile indent 10 sphere 32 32 v_z_indent ${indent_radius}
fix indenter mobile indent 10 sphere 32 32 v_z_indent 9.5
# Output settings
thermo 200
thermo_style custom step temp pe ke etotal press v_z_indent f_indenter

# ------------------------ Loading --------------------------
print "Loading phase........................................................................................."
Loading phase.........................................................................................

variable loading_steps equal ${max_indent}/${indent_velocity}/${timestep_val}
variable loading_steps equal 25/${indent_velocity}/${timestep_val}
variable loading_steps equal 25/0.1/${timestep_val}
variable loading_steps equal 25/0.1/0.002
run ${loading_steps}
run 125000
Per MPI rank memory allocation (min/avg/max) = 9.445 | 9.549 | 9.97 Mbytes
   Step          Temp          PotEng         KinEng         TotEng         Press        v_z_indent     f_indenter  
      3661   10.034915     -3411105        499.41893     -3410605.6     -34255.989      183.3287       0            
      3800   7.4579012     -3410976.6      371.16579     -3410605.5     -34266.561      183.3009       0            
      4000   7.1490237     -3410961.3      355.79353     -3410605.5     -34057.359      183.2609       0            
      4200   7.234727      -3410965.5      360.05883     -3410605.5     -33675.335      183.2209       0            
      4400   7.2213915     -3410964.9      359.39514     -3410605.5     -33250.335      183.1809       0            
      4600   7.1865132     -3410963.1      357.65932     -3410605.5     -32868.731      183.1409       0            
      4800   7.170537      -3410962.3      356.86421     -3410605.5     -32429.644      183.1009       0            
      5000   7.1552931     -3410961.6      356.10555     -3410605.5     -32048.551      183.0609       0            
      5200   7.1528941     -3410961.5      355.98615     -3410605.5     -31806.727      183.0209       0            
      5400   7.1690044     -3410962.3      356.78794     -3410605.5     -31744.605      182.9809       0            
      5600   7.1924809     -3410963.4      357.95632     -3410605.5     -31873.116      182.9409       0            
      5800   7.2198957     -3410964.8      359.3207      -3410605.5     -32175.824      182.9009       0            
      6000   7.2335086     -3410965.5      359.99819     -3410605.5     -32592.053      182.8609       0            
      6200   7.2379361     -3410965.7      360.21854     -3410605.5     -33014.98       182.8209       0            
      6400   7.228349      -3410965.2      359.7414      -3410605.5     -33394.308      182.7809       0            
      6600   7.208236      -3410964.2      358.74042     -3410605.5     -33833.695      182.7409       0            
      6800   7.1851016     -3410963.1      357.58906     -3410605.5     -34158.015      182.7009       0            
      7000   7.1764382     -3410962.6      357.1579      -3410605.5     -34306.861      182.6609       0            
      7200   7.1801113     -3410962.8      357.3407      -3410605.5     -34281.609      182.6209       0            
      7400   7.2013803     -3410963.9      358.39922     -3410605.5     -34054.155      182.5809       0            
      7600   7.2112129     -3410964.4      358.88857     -3410605.5     -33695.478      182.5409       0            
      7800   7.2299553     -3410965.3      359.82135     -3410605.5     -33254.212      182.5009       0            
      8000   7.2363412     -3410965.6      360.13916     -3410605.5     -32869.95       182.4609       0            
      8200   7.2184484     -3410964.7      359.24867     -3410605.5     -32449.397      182.4209       0            
      8400   7.1935686     -3410963.5      358.01045     -3410605.5     -32058.613      182.3809       0            
      8600   7.169231      -3410962.3      356.79921     -3410605.5     -31800.726      182.3409       0            
      8800   7.1610929     -3410961.9      356.39419     -3410605.5     -31746.111      182.3009       0            
      9000   7.1666511     -3410962.1      356.67081     -3410605.5     -31873.323      182.2609       0            
      9200   7.1954853     -3410963.6      358.10584     -3410605.5     -32169.437      182.2209       0            
      9400   7.2258637     -3410965.1      359.61771     -3410605.5     -32582.6        182.1809       0            
      9600   7.2439904     -3410966        360.51985     -3410605.5     -33003.84       182.1409       0            
      9800   7.2400234     -3410965.8      360.32242     -3410605.5     -33382.579      182.1009       0            
     10000   7.210431      -3410964.3      358.84966     -3410605.5     -33830.198      182.0609       0            
     10200   7.1887716     -3410963.2      357.77171     -3410605.5     -34139.584      182.0209       0            
     10400   7.1672461     -3410962.2      356.70043     -3410605.5     -34313.106      181.9809       0            
     10600   7.1674738     -3410962.2      356.71176     -3410605.5     -34273.892      181.9409       0            
     10800   7.1893121     -3410963.3      357.79861     -3410605.5     -34069.243      181.9009       0            
     11000   7.2241019     -3410965        359.53003     -3410605.5     -33696.08       181.8609       0            
     11200   7.2467612     -3410966.1      360.65774     -3410605.5     -33265.719      181.8209       0            
     11400   7.250903      -3410966.3      360.86387     -3410605.5     -32864.391      181.7809       0            
     11600   7.2234506     -3410965        359.49762     -3410605.5     -32472.368      181.7409       0            
     11800   7.1909975     -3410963.3      357.88249     -3410605.5     -32049.148      181.7009       0            
     12000   7.1736066     -3410962.5      357.01698     -3410605.5     -31816.851      181.6609       0            
     12200   7.1569568     -3410961.7      356.18835     -3410605.5     -31746.9        181.6209       0            
     12400   7.1779033     -3410962.7      357.23082     -3410605.5     -31866.098      181.5809       0            
     12600   7.2097541     -3410964.3      358.81597     -3410605.5     -32164.098      181.5409       0            
     12800   7.2379826     -3410965.7      360.22085     -3410605.5     -32574.089      181.5009       0            
     13000   7.2502309     -3410966.3      360.83043     -3410605.5     -33001.467      181.4609       0            
     13200   7.2296603     -3410965.3      359.80666     -3410605.5     -33381.931      181.4209       0            
     13400   7.2052267     -3410964.1      358.59065     -3410605.5     -33805.164      181.3809       0            
     13600   7.1824483     -3410962.9      357.45701     -3410605.5     -34151.324      181.3409       0            
     13800   7.1700663     -3410962.3      356.84079     -3410605.5     -34310.671      181.3009       0            
     14000   7.1734817     -3410962.5      357.01076     -3410605.5     -34281.365      181.2609       0            
     14200   7.1937715     -3410963.5      358.02055     -3410605.5     -34073.592      181.2209       0            
     14400   7.228081      -3410965.2      359.72807     -3410605.5     -33710.36       181.1809       0            
     14600   7.2326581     -3410965.4      359.95586     -3410605.5     -33271.333      181.1409       0            
     14800   7.2336903     -3410965.5      360.00723     -3410605.5     -32869.263      181.1009       0            
     15000   7.2267242     -3410965.1      359.66054     -3410605.5     -32471.729      181.0609       0            
     15200   7.1917372     -3410963.4      357.9193      -3410605.5     -32062.383      181.0209       0            
     15400   7.1739974     -3410962.5      357.03643     -3410605.5     -31825.12       180.9809       0            
     15600   7.1659853     -3410962.1      356.63768     -3410605.5     -31734.566      180.9409       0            
     15800   7.1814607     -3410962.9      357.40786     -3410605.5     -31863.638      180.9009       0            
     16000   7.2041841     -3410964        358.53876     -3410605.5     -32149.805      180.8609       0            
     16200   7.2322054     -3410965.4      359.93333     -3410605.5     -32561.24       180.8209       0            
     16400   7.2446953     -3410966        360.55493     -3410605.5     -32992.485      180.7809       0            
     16600   7.2355679     -3410965.6      360.10067     -3410605.5     -33380.863      180.7409       0            
     16800   7.2112632     -3410964.4      358.89108     -3410605.5     -33790.708      180.7009       0            
     17000   7.1744374     -3410962.5      357.05832     -3410605.5     -34150.764      180.6609       0            
     17200   7.1764611     -3410962.6      357.15904     -3410605.5     -34297.208      180.6209       0            
     17400   7.1783267     -3410962.7      357.25189     -3410605.5     -34288.845      180.5809       0            
     17600   7.1864596     -3410963.1      357.65665     -3410605.5     -34080.38       180.5409       0            
     17800   7.2187171     -3410964.7      359.26204     -3410605.5     -33712.98       180.5009       0            
     18000   7.2441674     -3410966        360.52866     -3410605.5     -33289.369      180.4609       0            
     18200   7.2441772     -3410966        360.52914     -3410605.5     -32871.288      180.4209       0            
     18400   7.2221166     -3410964.9      359.43123     -3410605.5     -32491.555      180.3809       0            
     18600   7.1973765     -3410963.7      358.19996     -3410605.5     -32075.267      180.3409       0            
     18800   7.1814957     -3410962.9      357.4096      -3410605.5     -31817.667      180.3009       0            
     19000   7.176067      -3410962.6      357.13942     -3410605.5     -31745.726      180.2609       0            
     19200   7.1791255     -3410962.8      357.29164     -3410605.5     -31861.68       180.2209       0            
     19400   7.209959      -3410964.3      358.82617     -3410605.5     -32138.98       180.1809       0            
     19600   7.2285176     -3410965.2      359.74979     -3410605.5     -32553.34       180.1409       0            
     19800   7.2465793     -3410966.1      360.64869     -3410605.5     -32984.965      180.1009       0            
     20000   7.2429765     -3410965.9      360.46939     -3410605.5     -33377.84       180.0609       0            
     20200   7.2102502     -3410964.3      358.84066     -3410605.5     -33778.694      180.0209       0            
     20400   7.1720524     -3410962.4      356.93963     -3410605.5     -34141.608      179.9809       0            
     20600   7.1643105     -3410962        356.55433     -3410605.5     -34297.015      179.9409       0            
     20800   7.1721938     -3410962.4      356.94667     -3410605.5     -34294.58       179.9009       0            
     21000   7.2002738     -3410963.8      358.34415     -3410605.5     -34073.887      179.8609       0            
     21200   7.2192544     -3410964.8      359.28878     -3410605.5     -33728.55       179.8209       0            
     21400   7.2399508     -3410965.8      360.3188      -3410605.5     -33292.743      179.7809       0            
     21600   7.239131      -3410965.7      360.27801     -3410605.5     -32879.654      179.7409       0            
     21800   7.2245494     -3410965        359.5523      -3410605.5     -32490.273      179.7009       0            
     22000   7.1977429     -3410963.7      358.2182      -3410605.5     -32091.321      179.6609       0            
     22200   7.1744133     -3410962.5      357.05712     -3410605.5     -31816.951      179.6209       0            
     22400   7.1545967     -3410961.5      356.07089     -3410605.5     -31749.081      179.5809       0            
     22600   7.1745237     -3410962.5      357.06262     -3410605.5     -31844.544      179.5409       0            
     22800   7.1998775     -3410963.8      358.32443     -3410605.5     -32146.769      179.5009       0            
     23000   7.2238682     -3410965        359.5184      -3410605.5     -32547.828      179.4609       0            
     23200   7.2420073     -3410965.9      360.42115     -3410605.5     -32971.798      179.4209       0            
     23400   7.2330048     -3410965.4      359.97312     -3410605.5     -33378.972      179.3809       0            
     23600   7.2063102     -3410964.1      358.64458     -3410605.5     -33764.622      179.3409       0            
     23800   7.1760944     -3410962.6      357.14079     -3410605.5     -34137.058      179.3009       0            
     24000   7.1564712     -3410961.6      356.16418     -3410605.5     -34299.127      179.2609       0            
     24200   7.1697934     -3410962.3      356.8272      -3410605.5     -34291.86       179.2209       0            
     24400   7.1929771     -3410963.4      357.98101     -3410605.5     -34092.851      179.1809       0            
     24600   7.2175344     -3410964.7      359.20318     -3410605.5     -33737.553      179.1409       0            
     24800   7.2472548     -3410966.1      360.68231     -3410605.5     -33299.225      179.1009       0            
     25000   7.2461027     -3410966.1      360.62497     -3410605.5     -32883.593      179.0609       0            
     25200   7.2310685     -3410965.3      359.87675     -3410605.5     -32495.574      179.0209       0            
     25400   7.1949649     -3410963.5      358.07994     -3410605.5     -32104.277      178.9809       0            
     25600   7.1652606     -3410962.1      356.60161     -3410605.5     -31816.273      178.9409       0            
     25800   7.1618877     -3410961.9      356.43375     -3410605.5     -31747.587      178.9009       0            
     26000   7.1765006     -3410962.6      357.16101     -3410605.5     -31842.268      178.8609       0            
     26200   7.1970888     -3410963.7      358.18564     -3410605.5     -32134.587      178.8209       0            
     26400   7.2264324     -3410965.1      359.64602     -3410605.5     -32527.046      178.7809       0            
     26600   7.2390748     -3410965.7      360.27521     -3410605.5     -32974.034      178.7409       0            
     26800   7.2384141     -3410965.7      360.24232     -3410605.5     -33371.533      178.7009       0            
     27000   7.2154543     -3410964.6      359.09966     -3410605.5     -33755.731      178.6609       0            
     27200   7.1895422     -3410963.3      357.81006     -3410605.5     -34121.692      178.6209       0            
     27400   7.1695234     -3410962.3      356.81377     -3410605.5     -34305.691      178.5809       0            
     27600   7.1757846     -3410962.6      357.12537     -3410605.5     -34293.035      178.5409       0            
     27800   7.1904644     -3410963.3      357.85596     -3410605.5     -34102.022      178.5009       0            
     28000   7.2204557     -3410964.8      359.34857     -3410605.5     -33741.075      178.4609       0            
     28200   7.2381797     -3410965.7      360.23066     -3410605.5     -33319.228      178.4209       0            
     28400   7.2387965     -3410965.7      360.26136     -3410605.5     -32890.186      178.3809       0            
     28600   7.2200534     -3410964.8      359.32855     -3410605.5     -32494.354      178.3409       0            
     28800   7.1917636     -3410963.4      357.92062     -3410605.5     -32122.219      178.3009       0            
     29000   7.1717858     -3410962.4      356.92636     -3410605.5     -31821.23       178.2609       0            
     29200   7.1558168     -3410961.6      356.13161     -3410605.5     -31750.759      178.2209       0            
     29400   7.1730611     -3410962.5      356.98983     -3410605.5     -31838.966      178.1809       0            
     29600   7.1973338     -3410963.7      358.19784     -3410605.5     -32125.287      178.1409       0            
     29800   7.2279309     -3410965.2      359.7206      -3410605.5     -32516.277      178.1009       0            
     30000   7.2403231     -3410965.8      360.33733     -3410605.5     -32959.872      178.0609       0            
     30200   7.2430934     -3410965.9      360.47521     -3410605.5     -33363.007      178.0209       0            
     30400   7.2192644     -3410964.8      359.28928     -3410605.5     -33751.639      177.9809       0            
     30600   7.184099      -3410963        357.53916     -3410605.5     -34111.234      177.9409       0            
     30800   7.1696279     -3410962.3      356.81896     -3410605.5     -34307.293      177.9009       0            
     31000   7.1778425     -3410962.7      357.22779     -3410605.5     -34287.652      177.8609       0            
     31200   7.1898014     -3410963.3      357.82296     -3410605.5     -34105.779      177.8209       0            
     31400   7.2161501     -3410964.6      359.13429     -3410605.5     -33747.93       177.7809       0            
     31600   7.2398026     -3410965.8      360.31143     -3410605.5     -33329.631      177.7409       0            
     31800   7.2419825     -3410965.9      360.41992     -3410605.5     -32888.916      177.7009       0            
     32000   7.2319324     -3410965.4      359.91974     -3410605.5     -32508.314      177.6609       0            
     32200   7.2089392     -3410964.2      358.77542     -3410605.5     -32131.87       177.6209       0            
     32400   7.1841077     -3410963        357.5396      -3410605.5     -31821.651      177.5809       0            
     32600   7.1735994     -3410962.5      357.01662     -3410605.5     -31743.572      177.5409       0            
     32800   7.1790301     -3410962.8      357.2869      -3410605.5     -31843.255      177.5009       0            
     33000   7.1971308     -3410963.7      358.18773     -3410605.5     -32116.894      177.4609       0            
     33200   7.2229518     -3410964.9      359.4728      -3410605.5     -32513.503      177.4209       0            
     33400   7.2429839     -3410965.9      360.46976     -3410605.5     -32951.235      177.3809       0            
     33600   7.233472      -3410965.5      359.99637     -3410605.5     -33364.825      177.3409       0            
     33800   7.2185745     -3410964.7      359.25495     -3410605.5     -33742.962      177.3009       0            
     34000   7.1913403     -3410963.4      357.89955     -3410605.5     -34096.473      177.2609       0            
     34200   7.1690863     -3410962.3      356.79201     -3410605.5     -34316.131      177.2209       0            
     34400   7.1710299     -3410962.4      356.88874     -3410605.5     -34289.474      177.1809       0            
     34600   7.1856749     -3410963.1      357.61759     -3410605.5     -34113.377      177.1409       0            
     34800   7.2128874     -3410964.4      358.97191     -3410605.5     -33754.991      177.1009       0            
     35000   7.2396419     -3410965.8      360.30343     -3410605.5     -33337.362      177.0609       0            
     35200   7.2386022     -3410965.7      360.25169     -3410605.5     -32895.615      177.0209       0            
     35400   7.2281783     -3410965.2      359.73291     -3410605.5     -32515.651      176.9809       0            
     35600   7.2007802     -3410963.8      358.36936     -3410605.5     -32135.888      176.9409       0            
     35800   7.1770562     -3410962.7      357.18866     -3410605.5     -31834.332      176.9009       0            
     36000   7.1761648     -3410962.6      357.14429     -3410605.5     -31732.875      176.8609       0            
     36200   7.1773554     -3410962.7      357.20355     -3410605.5     -31838.342      176.8209       0            
     36400   7.1982234     -3410963.7      358.24211     -3410605.5     -32099.562      176.7809       0            
     36600   7.2238463     -3410965        359.51731     -3410605.5     -32511.469      176.7409       0            
     36800   7.2309924     -3410965.3      359.87296     -3410605.5     -32938.558      176.7009       0            
     37000   7.2302083     -3410965.3      359.83394     -3410605.5     -33361.749      176.6609       0            
     37200   7.2025232     -3410963.9      358.4561      -3410605.5     -33730.521      176.6209       0            
     37400   7.1855814     -3410963.1      357.61294     -3410605.5     -34091.26       176.5809       0            
     37600   7.1682511     -3410962.2      356.75044     -3410605.5     -34312.884      176.5409       0            
     37800   7.1703895     -3410962.3      356.85687     -3410605.5     -34291.158      176.5009       0            
     38000   7.1876499     -3410963.2      357.71589     -3410605.5     -34118.064      176.4609       0            
     38200   7.2166307     -3410964.6      359.15821     -3410605.5     -33776.914      176.4209       0            
     38400   7.2367472     -3410965.6      360.15937     -3410605.5     -33342.927      176.3809       0            
     38600   7.2399769     -3410965.8      360.3201      -3410605.5     -32907.224      176.3409       0            
     38800   7.232547      -3410965.4      359.95033     -3410605.5     -32516.409      176.3009       0            
     39000   7.2000801     -3410963.8      358.33452     -3410605.5     -32149.021      176.2609       0            
     39200   7.1712611     -3410962.4      356.90025     -3410605.5     -31841.078      176.2209       0            
     39400   7.1703488     -3410962.3      356.85484     -3410605.5     -31731.235      176.1809       0            
     39600   7.1778637     -3410962.7      357.22885     -3410605.5     -31845.01       176.1409       0            
     39800   7.1957879     -3410963.6      358.1209      -3410605.5     -32088.44       176.1009       0            
     40000   7.2229208     -3410964.9      359.47125     -3410605.5     -32497.829      176.0609       0.00011562817
     40200   7.2321839     -3410965.4      359.93226     -3410605.5     -32930.751      176.0209       0.0033316669 
     40400   7.2287266     -3410965.2      359.76019     -3410605.5     -33355.003      175.9809       0.015003389  
     40600   7.2164629     -3410964.6      359.14986     -3410605.5     -33719.738      175.9409       0.038378319  
     40800   7.1929799     -3410963.4      357.98115     -3410605.4     -34074.597      175.9009       0.063543545  
     41000   7.1716167     -3410962.4      356.91794     -3410605.4     -34294.035      175.8609       0.10625193   
     41200   7.1671714     -3410962.1      356.69671     -3410605.4     -34280.38       175.8209       0.15070847   
     41400   7.1826252     -3410962.8      357.46582     -3410605.3     -34096.814      175.7809       0.17408616   
     41600   7.2153068     -3410964.4      359.09232     -3410605.3     -33755.784      175.7409       0.2057488    
     41800   7.2445742     -3410965.7      360.5489      -3410605.2     -33306.32       175.7009       0.21847582   
     42000   7.2441289     -3410965.6      360.52674     -3410605.1     -32875.193      175.6609       0.23508111   
     42200   7.2269869     -3410964.7      359.67362     -3410605       -32465.888      175.6209       0.25185244   
     42400   7.2007682     -3410963.3      358.36876     -3410604.9     -32100.906      175.5809       0.29355549   
     42600   7.1796108     -3410962.1      357.31579     -3410604.8     -31783.232      175.5409       0.32961157   
     42800   7.1659246     -3410961.3      356.63466     -3410604.7     -31667.973      175.5009       0.40507411   
     43000   7.1867023     -3410962.3      357.66872     -3410604.6     -31777.648      175.4609       0.47574116   
     43200   7.2004171     -3410962.8      358.35129     -3410604.5     -32009.835      175.4209       0.5874552    
     43400   7.2200221     -3410963.6      359.32699     -3410604.3     -32412.88       175.3809       0.67849865   
     43600   7.2360671     -3410964.3      360.12552     -3410604.2     -32842.286      175.3409       0.8298764    
     43800   7.2291507     -3410963.8      359.7813      -3410604       -33247.001      175.3009       1.0057038    
     44000   7.2125712     -3410962.7      358.95617     -3410603.8     -33607.004      175.2609       1.2216454    
     44200   7.1896173     -3410961.3      357.8138      -3410603.4     -33937.217      175.2209       1.3358273    
     44400   7.1636489     -3410959.6      356.5214      -3410603.1     -34146.542      175.1809       1.4775411    
     44600   7.1697347     -3410959.5      356.82428     -3410602.7     -34119.899      175.1409       1.624344     
     44800   7.1848665     -3410959.8      357.57736     -3410602.3     -33905.978      175.1009       1.7695008    
     45000   7.2196005     -3410961        359.30601     -3410601.7     -33567.789      175.0609       1.814499     
     45200   7.239321      -3410961.5      360.28746     -3410601.2     -33097.836      175.0209       1.8967925    
     45400   7.2476118     -3410961.3      360.70008     -3410600.6     -32659.634      174.9809       1.946799     
     45600   7.226519      -3410959.7      359.65033     -3410600       -32247.225      174.9409       2.026194     
     45800   7.2045727     -3410958        358.5581      -3410599.5     -31895.354      174.9009       2.102328     
     46000   7.1801937     -3410956.3      357.3448      -3410598.9     -31578.968      174.8609       2.2635317    
     46200   7.1716726     -3410955.3      356.92073     -3410598.4     -31464.902      174.8209       2.4273231    
     46400   7.1741592     -3410954.9      357.04448     -3410597.8     -31576.745      174.7809       2.6749099    
     46600   7.197599      -3410955.4      358.21103     -3410597.2     -31829.217      174.7409       2.8406108    
     46800   7.2211327     -3410956        359.38226     -3410596.6     -32222.673      174.7009       3.1834968    
     47000   7.237095      -3410956.1      360.17667     -3410595.9     -32653.467      174.6609       3.3906505    
     47200   7.2375601     -3410955.4      360.19982     -3410595.2     -33047.749      174.6209       3.7743271    
     47400   7.20711       -3410953.2      358.68438     -3410594.5     -33402.534      174.5809       4.1468614    
     47600   7.1736449     -3410950.5      357.01888     -3410593.5     -33698.341      174.5409       4.2530247    
     47800   7.1624257     -3410949.1      356.46053     -3410592.7     -33892.638      174.5009       4.7156103    
     48000   7.1683752     -3410948.3      356.75662     -3410591.5     -33848.544      174.4609       4.8696491    
     48200   7.1913548     -3410948.4      357.90027     -3410590.5     -33610.464      174.4209       5.1185652    
     48400   7.2255324     -3410948.8      359.60123     -3410589.2     -33258.48       174.3809       5.2347894    
     48600   7.2378186     -3410948.2      360.21269     -3410588       -32772.332      174.3409       5.3858931    
     48800   7.2438235     -3410947.2      360.51154     -3410586.7     -32328.503      174.3009       5.5108397    
     49000   7.2289569     -3410945.2      359.77166     -3410585.4     -31919.272      174.2609       5.6789603    
     49200   7.2043269     -3410942.6      358.54587     -3410584       -31565.274      174.2209       5.7963517    
     49400   7.1784369     -3410939.9      357.25737     -3410582.7     -31274.424      174.1809       5.9681037    
     49600   7.16772       -3410938.1      356.72401     -3410581.4     -31167.888      174.1409       6.2752625    
     49800   7.1803377     -3410937.6      357.35197     -3410580.3     -31284.675      174.1009       6.7662829    
     50000   7.2031833     -3410937.3      358.48895     -3410578.8     -31551.334      174.0609       7.0029008    
     50200   7.237644      -3410937.8      360.204       -3410577.6     -31935.02       174.0209       7.6276351    
     50400   7.2465611     -3410936.9      360.64778     -3410576.2     -32379.264      173.9809       8.1324806    
     50600   7.2285082     -3410934.3      359.74933     -3410574.5     -32753          173.9409       8.4645118    
     50800   7.2074129     -3410931.7      358.69945     -3410573       -33087.519      173.9009       9.0073772    
     51000   7.1850607     -3410929.1      357.58703     -3410571.5     -33349.877      173.8609       9.6383601    
     51200   7.1791871     -3410926.7      357.29471     -3410569.4     -33522.019      173.8209       9.7974817    
     51400   7.1845478     -3410925.1      357.5615      -3410567.6     -33449.244      173.7809       10.337289    
     51600   7.2042862     -3410923.8      358.54384     -3410565.3     -33189.579      173.7409       10.40513     
     51800   7.2366642     -3410923.4      360.15523     -3410563.3     -32809.558      173.7009       10.795065    
     52000   7.2538961     -3410922        361.01284     -3410561       -32327.598      173.6609       10.935054    
     52200   7.2530721     -3410919.8      360.97183     -3410558.8     -31872.971      173.6209       11.256941    
     52400   7.2337371     -3410916.5      360.00956     -3410556.5     -31465.136      173.5809       11.5209      
     52600   7.2057841     -3410912.8      358.61839     -3410554.2     -31127.126      173.5409       11.829632    
     52800   7.1846725     -3410909.5      357.56771     -3410551.9     -30865.997      173.5009       12.169719    
     53000   7.1653861     -3410906.4      356.60786     -3410549.7     -30760.381      173.4609       12.724692    
     53200   7.1819565     -3410904.9      357.43254     -3410547.5     -30899.269      173.4209       13.26628     
     53400   7.2181752     -3410904.4      359.23507     -3410545.1     -31180.094      173.3809       13.816023    
     53600   7.2360682     -3410902.9      360.12557     -3410542.8     -31557.037      173.3409       14.467596    
     53800   7.2421874     -3410900.9      360.43012     -3410540.5     -31997.972      173.3009       15.287359    
     54000   7.236694      -3410898.1      360.15672     -3410537.9     -32357.872      173.2609       15.939009    
     54200   7.2121544     -3410894.1      358.93543     -3410535.2     -32679.291      173.2209       16.491871    
     54400   7.1916393     -3410890.3      357.91443     -3410532.4     -32911.707      173.1809       17.092075    
     54600   7.1816267     -3410886.8      357.41612     -3410529.4     -33042.956      173.1409       17.623813    
     54800   7.1861174     -3410883.9      357.63962     -3410526.3     -32958.783      173.1009       18.076669    
     55000   7.2117864     -3410882.2      358.91711     -3410523.3     -32671.339      173.0609       18.772392    
     55200   7.2363876     -3410879.7      360.14147     -3410519.6     -32269.313      173.0209       18.758389    
     55400   7.2528306     -3410877.3      360.95981     -3410516.3     -31791.901      172.9809       19.276876    
     55600   7.2566384     -3410874.2      361.14931     -3410513       -31318.463      172.9409       19.781045    
     55800   7.2349588     -3410869.5      360.07036     -3410509.4     -30935.121      172.9009       20.08002     
     56000   7.2122119     -3410864.9      358.93829     -3410505.9     -30596.981      172.8609       20.511824    
     56200   7.1970989     -3410860.6      358.18614     -3410502.4     -30354.993      172.8209       21.0244      
     56400   7.1859778     -3410856.4      357.63267     -3410498.8     -30265.766      172.7809       21.409129    
     56600   7.2108423     -3410854        358.87013     -3410495.2     -30420.718      172.7409       21.950732    
     56800   7.2536041     -3410853        360.9983      -3410492       -30713.983      172.7009       23.010416    
     57000   7.2708207     -3410850.2      361.85514     -3410488.3     -31092.147      172.6609       23.730048    
     57200   7.2794817     -3410846.9      362.28618     -3410484.6     -31521.916      172.6209       24.552198    
     57400   7.269962      -3410842.5      361.8124      -3410480.7     -31886.336      172.5809       25.297327    
     57600   7.2381395     -3410837.2      360.22866     -3410477       -32182.549      172.5409       26.298819    
     57800   7.2158417     -3410832        359.11894     -3410472.9     -32384.742      172.5009       27.083145    
     58000   7.2094505     -3410827.8      358.80086     -3410469       -32488.391      172.4609       28.150276    
     58200   7.2192536     -3410823.7      359.28874     -3410464.4     -32376.662      172.4209       28.637669    
     58400   7.2446047     -3410820        360.55042     -3410459.5     -32050.923      172.3809       28.897459    
     58600   7.284386      -3410817.3      362.53026     -3410454.8     -31633.128      172.3409       29.405591    
     58800   7.2952002     -3410812.8      363.06847     -3410449.8     -31150.166      172.3009       29.693922    
     59000   7.2796899     -3410807.3      362.29655     -3410445       -30663.906      172.2609       30.236307    
     59200   7.258137      -3410801.6      361.2239      -3410440.4     -30281.235      172.2209       31.107431    
     59400   7.2309775     -3410795.3      359.87222     -3410435.4     -29956.068      172.1809       31.610629    
     59600   7.2132324     -3410789.1      358.98908     -3410430.1     -29746.783      172.1409       31.927807    
     59800   7.2088321     -3410783.9      358.77008     -3410425.1     -29667.87       172.1009       32.644789    
     60000   7.2297866     -3410780.1      359.81295     -3410420.3     -29828.359      172.0609       33.620126    
     60200   7.2507014     -3410776.1      360.85384     -3410415.3     -30149.568      172.0209       34.484016    
     60400   7.2766799     -3410772.7      362.14674     -3410410.6     -30531.092      171.9809       35.833442    
     60600   7.2851445     -3410767.8      362.56801     -3410405.2     -30946.221      171.9409       36.673354    
     60800   7.2655183     -3410761        361.59125     -3410399.4     -31301.26       171.9009       37.286301    
     61000   7.2416009     -3410754.8      360.40093     -3410394.4     -31566.031      171.8609       38.716232    
     61200   7.2192664     -3410748        359.28938     -3410388.7     -31751.731      171.8209       39.647118    
     61400   7.2070934     -3410741.4      358.68355     -3410382.7     -31804.672      171.7809       40.401088    
     61600   7.2504971     -3410738.1      360.84368     -3410377.3     -31678.452      171.7409       41.821186    
     61800   7.2765067     -3410732.8      362.13812     -3410370.6     -31316.874      171.7009       42.143774    
     62000   7.3109946     -3410727.4      363.85452     -3410363.5     -30878.624      171.6609       42.011029    
     62200   7.3300816     -3410721.2      364.80445     -3410356.4     -30391.348      171.6209       41.910808    
     62400   7.3323981     -3410715.1      364.91973     -3410350.2     -29914.259      171.5809       42.762663    
     62600   7.3171709     -3410708        364.1619      -3410343.8     -29544.199      171.5409       43.585448    
     62800   7.3085063     -3410700.9      363.73068     -3410337.2     -29243.384      171.5009       44.144329    
     63000   7.3061922     -3410694.7      363.61551     -3410331.1     -29071.821      171.4609       45.431423    
     63200   7.3163173     -3410688.5      364.11942     -3410324.3     -29027.706      171.4209       46.140176    
     63400   7.3360818     -3410682.3      365.10307     -3410317.2     -29208.796      171.3809       46.571969    
     63600   7.3594932     -3410676.8      366.26821     -3410310.5     -29549.22       171.3409       47.579664    
     63800   7.3736193     -3410671.2      366.97124     -3410304.2     -29937.074      171.3009       49.047488    
     64000   7.3759017     -3410664.9      367.08483     -3410297.8     -30346.508      171.2609       50.629853    
     64200   7.3533112     -3410657.1      365.96054     -3410291.2     -30692.592      171.2209       52.170252    
     64400   7.3236606     -3410648.7      364.48488     -3410284.2     -30923.078      171.1809       53.546968    
     64600   7.3079021     -3410640.2      363.70061     -3410276.5     -31061.701      171.1409       54.3987      
     64800   7.3097829     -3410632.6      363.79422     -3410268.9     -31074.069      171.1009       55.350695    
     65000   7.3341322     -3410625.5      365.00604     -3410260.5     -30908.952      171.0609       55.708079    
     65200   7.368095      -3410619.9      366.6963      -3410253.2     -30517.025      171.0209       57.300502    
     65400   7.3870249     -3410612.4      367.63841     -3410244.8     -30036.703      170.9809       57.809021    
     65600   7.3988462     -3410605        368.22673     -3410236.8     -29544.005      170.9409       58.797289    
     65800   7.3756959     -3410595.1      367.07458     -3410228       -29061.173      170.9009       59.139199    
     66000   7.3544966     -3410585.7      366.01953     -3410219.6     -28690.334      170.8609       59.925983    
     66200   7.3202203     -3410575.8      364.31367     -3410211.5     -28423.258      170.8209       61.054023    
     66400   7.3158043     -3410566.7      364.09389     -3410202.6     -28269.701      170.7809       61.470046    
     66600   7.3207407     -3410558.3      364.33957     -3410194       -28248.867      170.7409       62.376239    
     66800   7.3449494     -3410551.3      365.54439     -3410185.8     -28450.451      170.7009       63.758311    
     67000   7.3666587     -3410544.3      366.62482     -3410177.7     -28819.826      170.6609       65.443447    
     67200   7.3802409     -3410536.5      367.30078     -3410169.2     -29224.815      170.6209       66.935514    
     67400   7.3707746     -3410527.7      366.82966     -3410160.9     -29623.131      170.5809       68.760401    
     67600   7.361045      -3410518        366.34543     -3410151.6     -29949.466      170.5409       69.843858    
     67800   7.3320458     -3410507.5      364.9022      -3410142.6     -30143.154      170.5009       71.295742    
     68000   7.319348      -3410497.4      364.27025     -3410133.1     -30239.29       170.4609       72.55057     
     68200   7.3261215     -3410487.8      364.60736     -3410123.2     -30204.417      170.4209       73.474013    
     68400   7.3476573     -3410479.6      365.67915     -3410114       -30009.498      170.3809       75.149017    
     68600   7.3795974     -3410470.4      367.26875     -3410103.1     -29583.149      170.3409       75.383164    
     68800   7.4031411     -3410461.3      368.44048     -3410092.9     -29083.478      170.3009       76.25019     
     69000   7.4067676     -3410450.4      368.62096     -3410081.8     -28561.284      170.2609       76.324748    
     69200   7.3819812     -3410439.1      367.38739     -3410071.8     -28092.414      170.2209       77.568569    
     69400   7.3558859     -3410427.1      366.08868     -3410061       -27739.15       170.1809       78.165108    
     69600   7.3346907     -3410416.3      365.03383     -3410051.3     -27514.361      170.1409       79.910145    
     69800   7.3190825     -3410404.2      364.25704     -3410039.9     -27400.317      170.1009       80.187493    
     70000   7.3285422     -3410394.5      364.72783     -3410029.8     -27420.234      170.0609       81.759261    
     70200   7.3629238     -3410385.9      366.43894     -3410019.4     -27641.785      170.0209       83.314423    
     70400   7.3838298     -3410375.9      367.47939     -3410008.4     -28018.603      169.9809       84.370752    
     70600   7.3921541     -3410366.8      367.89368     -3409998.9     -28433.781      169.9409       87.13188     
     70800   7.3855083     -3410354.7      367.56293     -3409987.1     -28811.456      169.9009       87.807719    
     71000   7.3651674     -3410343.2      366.5506      -3409976.6     -29123.235      169.8609       90.054       
     71200   7.3358322     -3410330.7      365.09064     -3409965.6     -29277.276      169.8209       91.946239    
     71400   7.3330346     -3410318.6      364.95141     -3409953.6     -29324.913      169.7809       92.978661    
     71600   7.3398386     -3410306.5      365.29003     -3409941.3     -29231.044      169.7409       93.772389    
     71800   7.3601573     -3410294.6      366.30126     -3409928.3     -28995.354      169.7009       94.141997    
     72000   7.3928171     -3410283.3      367.92667     -3409915.4     -28548.58       169.6609       94.576344    
     72200   7.4141889     -3410272.6      368.99031     -3409903.6     -28020.598      169.6209       96.195334    
     72400   7.4095404     -3410259.7      368.75896     -3409891       -27514.049      169.5809       97.168796    
     72600   7.3837561     -3410245.5      367.47573     -3409878       -27047.755      169.5409       97.878868    
     72800   7.3633938     -3410231.4      366.46233     -3409864.9     -26722.422      169.5009       98.578509    
     73000   7.3374403     -3410217.6      365.17067     -3409852.4     -26529.7        169.4609       99.948204    
     73200   7.3368071     -3410204.5      365.13916     -3409839.3     -26448.913      169.4209       100.92766    
     73400   7.3592839     -3410192.9      366.25779     -3409826.6     -26512.103      169.3809       102.39988    
     73600   7.3737616     -3410180.7      366.97832     -3409813.7     -26734.976      169.3409       103.85646    
     73800   7.4281144     -3410166.9      369.68335     -3409797.2     -27150.963      169.3009       101.84271    
     74000   7.7411995     -3410147.5      385.26501     -3409762.3     -27696.646      169.2609       80.601621    
     74200   8.176935      -3410137        406.95075     -3409730.1     -28217.836      169.2209       60.487534    
     74400   8.4142585     -3410143        418.7619      -3409724.3     -28678.466      169.1809       66.112381    
     74600   8.8419014     -3410160.2      440.04489     -3409720.1     -29078.898      169.1409       74.442789    
     74800   10.297558     -3410223.9      512.49017     -3409711.4     -29516.939      169.1009       78.361575    
     75000   10.575095     -3410231.1      526.30268     -3409704.8     -29586.017      169.0609       85.426103    
     75200   10.728202     -3410218        533.92255     -3409684.1     -29488.665      169.0209       78.031134    
     75400   10.916151     -3410214.6      543.27639     -3409671.3     -29259.552      168.9809       78.277145    
     75600   11.082397     -3410214.1      551.55014     -3409662.6     -28791.099      168.9409       82.711741    
     75800   11.327182     -3410209.8      563.73265     -3409646       -28305.664      168.9009       79.249584    
     76000   11.491203     -3410209.9      571.89566     -3409638       -27779.404      168.8609       84.351074    
     76200   11.561855     -3410199.5      575.41191     -3409624.1     -27248.081      168.8209       83.763966    
     76400   11.543432     -3410184.3      574.495       -3409609.9     -26803.641      168.7809       82.783956    
     76600   11.499231     -3410169.8      572.29521     -3409597.5     -26538.398      168.7409       83.714842    
     76800   11.477599     -3410154.8      571.21863     -3409583.6     -26435.772      168.7009       82.879712    
     77000   11.556436     -3410148.7      575.1422      -3409573.6     -26500.035      168.6609       85.994435    
     77200   11.554243     -3410137.3      575.03305     -3409562.3     -26819.031      168.6209       88.271543    
     77400   11.565704     -3410127.1      575.60345     -3409551.5     -27253.463      168.5809       91.371009    
     77600   11.551416     -3410117.2      574.89234     -3409542.3     -27643.451      168.5409       96.625083    
     77800   11.552834     -3410106.3      574.96293     -3409531.3     -28108.539      168.5009       100.78439    
     78000   11.570435     -3410095.1      575.83888     -3409519.2     -28386.717      168.4609       104.32779    
     78200   11.549927     -3410077.6      574.81827     -3409502.8     -28494.676      168.4209       103.44842    
     78400   11.608215     -3410065        577.71915     -3409487.3     -28381.903      168.3809       103.59084    
     78600   11.629612     -3410050.4      578.78401     -3409471.6     -28260.707      168.3409       103.47062    
     78800   11.603272     -3410031.4      577.47312     -3409453.9     -27910.87       168.3009       101.21302    
     79000   11.620346     -3410018.5      578.32286     -3409440.2     -27351.64       168.2609       102.95688    
     79200   11.685675     -3410008.1      581.57416     -3409426.5     -26778.155      168.2209       104.91203    
     79400   11.729301     -3409995.9      583.74534     -3409412.1     -26299.99       168.1809       106.40083    
     79600   11.629029     -3409974.9      578.75502     -3409396.1     -25802.514      168.1409       106.44782    
     79800   11.584305     -3409956.9      576.52921     -3409380.4     -25533.543      168.1009       106.64297    
     80000   11.515096     -3409939.5      573.08476     -3409366.4     -25510.988      168.0609       108.62875    
     80200   11.561457     -3409929.5      575.3921      -3409354.1     -25620.038      168.0209       112.85556    
     80400   11.567158     -3409912.9      575.67581     -3409337.2     -25641.593      167.9809       112.67886    
     80600   11.741409     -3409908.3      584.34794     -3409323.9     -25954.889      167.9409       116.04579    
     80800   11.746284     -3409894.5      584.59055     -3409310       -26408.704      167.9009       119.29703    
     81000   11.697937     -3409878        582.18444     -3409295.8     -26687.744      167.8609       122.78687    
     81200   11.577991     -3409851.9      576.21493     -3409275.7     -27027.009      167.8209       120.46324    
     81400   11.633191     -3409833.8      578.96213     -3409254.8     -27298.391      167.7809       117.32905    
     81600   11.767876     -3409812.8      585.66518     -3409227.2     -27362.574      167.7409       107.12977    
     81800   12.076171     -3409796        601.00842     -3409195       -27307.398      167.7009       91.312545    
     82000   12.160339     -3409782.5      605.19731     -3409177.3     -27255.26       167.6609       88.864289    
     82200   12.220815     -3409774.7      608.20707     -3409166.5     -27111.774      167.6209       93.646119    
     82400   12.074897     -3409752.6      600.94502     -3409151.7     -26768.293      167.5809       94.991991    
     82600   12.234991     -3409741.7      608.91259     -3409132.8     -26491.523      167.5409       92.28527     
     82800   12.501657     -3409741.4      622.18409     -3409119.2     -26289.332      167.5009       94.889196    
     83000   12.677454     -3409730.2      630.93317     -3409099.2     -26005.484      167.4609       90.811701    
     83200   13.051448     -3409723.9      649.54617     -3409074.3     -25980.542      167.4209       81.198092    
     83400   13.501559     -3409728.9      671.94734     -3409057       -26248.604      167.3809       77.829417    
     83600   13.851869     -3409737.4      689.38159     -3409048       -26473.151      167.3409       83.087254    
     83800   14.419534     -3409751.4      717.6332      -3409033.8     -26632.375      167.3009       83.509848    
     84000   15.062262     -3409769.5      749.62058     -3409019.9     -27043.889      167.2609       84.208967    
     84200   15.360518     -3409774.8      764.46424     -3409010.3     -27509.308      167.2209       89.559519    
     84400   15.941951     -3409787.8      793.40107     -3408994.4     -27795.633      167.1809       89.031062    
     84600   16.044936     -3409770.7      798.52643     -3408972.2     -27980.005      167.1409       81.961322    
     84800   16.151539     -3409756.5      803.83189     -3408952.6     -28148.319      167.1009       76.64919     
     85000   16.150955     -3409744.6      803.80282     -3408940.8     -28127.965      167.0609       78.753051    
     85200   16.40337      -3409748.2      816.36503     -3408931.9     -27840.628      167.0209       83.98595     
     85400   16.718576     -3409748.7      832.05226     -3408916.7     -27746.848      166.9809       83.302391    
     85600   16.976066     -3409744.8      844.86703     -3408899.9     -27566.414      166.9409       80.830315    
     85800   17.231034     -3409742        857.55634     -3408884.5     -27212.709      166.9009       79.210157    
     86000   17.432888     -3409735.3      867.60222     -3408867.7     -26925.359      166.8609       76.037877    
     86200   17.34926      -3409720        863.44019     -3408856.6     -26824.687      166.8209       78.230148    
     86400   17.457581     -3409714.3      868.83113     -3408845.5     -26555.773      166.7809       80.40931     
     86600   17.50434      -3409703.3      871.15825     -3408832.1     -26471.424      166.7409       80.617241    
     86800   17.64109      -3409695.9      877.96403     -3408817.9     -26705.826      166.7009       80.229065    
     87000   17.746242     -3409687.8      883.19728     -3408804.6     -26939.353      166.6609       80.749195    
     87200   17.761018     -3409677.3      883.93265     -3408793.4     -26971.483      166.6209       83.971596    
     87400   17.7982       -3409666.6      885.78311     -3408780.8     -27175.285      166.5809       85.98881     
     87600   17.873007     -3409653        889.50611     -3408763.5     -27453.734      166.5409       83.032467    
     87800   17.758003     -3409634.1      883.7826      -3408750.3     -27557.897      166.5009       83.945284    
     88000   17.760935     -3409619.2      883.92849     -3408735.3     -27670.155      166.4609       82.911269    
     88200   17.852255     -3409610.7      888.4733      -3408722.2     -27722.472      166.4209       83.522333    
     88400   17.934197     -3409600.7      892.5514      -3408708.1     -27535.419      166.3809       83.566643    
     88600   17.828117     -3409584.1      887.27204     -3408696.8     -27185.784      166.3409       86.686501    
     88800   17.832101     -3409572.8      887.47028     -3408685.4     -26988.909      166.3009       89.801452    
     89000   17.965978     -3409567.1      894.13312     -3408672.9     -26876.263      166.2609       92.394211    
     89200   18.058854     -3409559.6      898.75539     -3408660.9     -26527.86       166.2209       95.671978    
     89400   17.930705     -3409539.9      892.37765     -3408647.5     -26169.989      166.1809       97.972971    
     89600   17.916302     -3409522.7      891.66083     -3408631       -25985.107      166.1409       97.445313    
     89800   17.786223     -3409500.3      885.18705     -3408615.1     -25675.209      166.1009       97.53724     
     90000   17.783864     -3409487.1      885.06965     -3408602       -25531.042      166.0609       100.61949    
     90200   18.02697      -3409483.7      897.16856     -3408586.6     -25575.52       166.0209       101.6308     
     90400   18.120048     -3409471.3      901.80088     -3408569.5     -25725.989      165.9809       100.90096    
     90600   18.236642     -3409456.5      907.60353     -3408548.9     -25715.619      165.9409       96.39721     
     90800   18.129307     -3409433        902.26169     -3408530.7     -25917.888      165.9009       93.920308    
     91000   18.00709      -3409413.2      896.17918     -3408517       -26273.688      165.8609       95.596528    
     91200   18.147162     -3409408.9      903.15028     -3408505.7     -26482.876      165.8209       100.32778    
     91400   18.164499     -3409394.3      904.01311     -3408490.3     -26633.649      165.7809       101.23512    
     91600   18.149857     -3409381.7      903.28444     -3408478.4     -26833.049      165.7409       106.18643    
     91800   18.11815      -3409366.3      901.70644     -3408464.6     -26778.82       165.7009       109.79841    
     92000   18.241578     -3409357.3      907.8492      -3408449.5     -26531.648      165.6609       112.64085    
     92200   18.2316       -3409340.3      907.35264     -3408432.9     -26282.432      165.6209       114.2032     
     92400   18.273043     -3409318.4      909.41514     -3408409       -25999.888      165.5809       108.22636    
     92600   18.493245     -3409305.1      920.37418     -3408384.7     -25491.127      165.5409       101.39534    
     92800   18.978612     -3409306.2      944.53002     -3408361.7     -24946.175      165.5009       95.080496    
     93000   19.181112     -3409300.6      954.60805     -3408346       -24732.308      165.4609       95.628924    
     93200   19.146048     -3409288.4      952.86297     -3408335.6     -24532.404      165.4209       102.12027    
     93400   19.221691     -3409274.8      956.62758     -3408318.2     -24487.719      165.3809       102.29379    
     93600   19.364339     -3409260.2      963.72691     -3408296.5     -24695.168      165.3409       97.522439    
     93800   19.416197     -3409247        966.30781     -3408280.7     -25072.408      165.3009       98.236176    
     94000   19.585359     -3409235.4      974.72667     -3408260.7     -25350.516      165.2609       94.499208    
     94200   19.786767     -3409232.8      984.75038     -3408248       -25760.781      165.2209       98.57877     
     94400   20.005815     -3409226.1      995.65195     -3408230.4     -26188.607      165.1809       97.928353    
     94600   20.164621     -3409220.8      1003.5555     -3408217.2     -26314.244      165.1409       101.98977    
     94800   20.326839     -3409214.1      1011.6287     -3408202.4     -26415.367      165.1009       104.78643    
     95000   20.543912     -3409210.4      1022.4321     -3408188       -26608.489      165.0609       108.53487    
     95200   20.733412     -3409202.2      1031.8631     -3408170.4     -26374.187      165.0209       109.21458    
     95400   20.836335     -3409182.2      1036.9854     -3408145.2     -25946.224      164.9809       101.85776    
     95600   20.845642     -3409167.2      1037.4486     -3408129.7     -25572.379      164.9409       103.66922    
     95800   21.1495       -3409164.9      1052.571      -3408112.4     -25185.665      164.9009       103.72795    
     96000   21.163634     -3409151        1053.2745     -3408097.7     -24583.745      164.8609       106.90767    
     96200   21.228016     -3409135.2      1056.4786     -3408078.8     -24068.222      164.8209       105.70563    
     96400   21.227504     -3409120.7      1056.4531     -3408064.2     -24016.747      164.7809       108.9808     
     96600   21.280731     -3409112.8      1059.1022     -3408053.7     -23818.328      164.7409       116.55048    
     96800   21.272509     -3409091.9      1058.693      -3408033.2     -23808.734      164.7009       115.07741    
     97000   21.275615     -3409078        1058.8476     -3408019.2     -24063.695      164.6609       120.04215    
     97200   21.424659     -3409067.4      1066.2652     -3408001.1     -24342.303      164.6209       121.45872    
     97400   21.392278     -3409045.3      1064.6537     -3407980.6     -24515.3        164.5809       120.41679    
     97600   21.388294     -3409025.2      1064.4554     -3407960.8     -24848.069      164.5409       120.25239    
     97800   21.491482     -3409012.6      1069.5908     -3407943       -25235.277      164.5009       122.14038    
     98000   21.332478     -3408985.6      1061.6775     -3407924       -25241.239      164.4609       123.00294    
     98200   21.368468     -3408968.4      1063.4687     -3407904.9     -25176.567      164.4209       123.89267    
     98400   21.486859     -3408956.5      1069.3608     -3407887.1     -25252.332      164.3809       126.33423    
     98600   21.465283     -3408936.1      1068.287      -3407867.8     -24961.752      164.3409       127.48327    
     98800   21.511733     -3408922.7      1070.5987     -3407852.1     -24473.571      164.3009       132.66591    
     99000   21.46092      -3408903        1068.0698     -3407835       -24151.202      164.2609       137.06722    
     99200   21.445769     -3408874.7      1067.3158     -3407807.3     -23729.579      164.2209       130.92907    
     99400   21.482335     -3408856.9      1069.1356     -3407787.8     -23202.878      164.1809       132.53625    
     99600   21.497777     -3408833.5      1069.9042     -3407763.6     -22772.957      164.1409       129.52955    
     99800   21.519066     -3408813.9      1070.9636     -3407742.9     -22754.027      164.1009       129.81423    
    100000   21.517947     -3408791.4      1070.9079     -3407720.5     -22581.332      164.0609       128.20581    
    100200   21.464183     -3408772.4      1068.2322     -3407704.2     -22613.264      164.0209       132.97134    
    100400   21.595236     -3408762.9      1074.7545     -3407688.2     -22931.525      163.9809       138.59443    
    100600   21.581868     -3408746.2      1074.0892     -3407672.2     -23236.752      163.9409       145.03942    
    100800   21.521565     -3408721.5      1071.088      -3407650.4     -23524.051      163.9009       146.09561    
    101000   21.505291     -3408696.5      1070.2781     -3407626.2     -23891.087      163.8609       145.03503    
    101200   21.598154     -3408675.8      1074.8997     -3407600.9     -24250.623      163.8209       142.67595    
    101400   21.603494     -3408654.7      1075.1655     -3407579.6     -24243.879      163.7809       144.1144     
    101600   21.654222     -3408638.5      1077.6901     -3407560.8     -24027.292      163.7409       148.6481     
    101800   21.757556     -3408619.4      1082.8328     -3407536.5     -23913.806      163.7009       147.87287    
    102000   21.981703     -3408603.2      1093.9882     -3407509.2     -23527.018      163.6609       143.80372    
    102200   22.120538     -3408586.7      1100.8978     -3407485.8     -23052.715      163.6209       143.44869    
    102400   22.42141      -3408575.5      1115.8716     -3407459.6     -22795.927      163.5809       139.88831    
    102600   22.641781     -3408561        1126.8391     -3407434.2     -22410.587      163.5409       136.68669    
    102800   22.883202     -3408549.3      1138.8542     -3407410.5     -22133.938      163.5009       134.71581    
    103000   23.198523     -3408546.7      1154.5471     -3407392.1     -22004.182      163.4609       138.25475    
    103200   23.553577     -3408536        1172.2175     -3407363.8     -22184.982      163.4209       131.41001    
    103400   24.025695     -3408540.6      1195.7139     -3407344.9     -22529.17       163.3809       133.49784    
    103600   24.312611     -3408536.3      1209.9932     -3407326.3     -22929.878      163.3409       136.21821    
    103800   24.659138     -3408537.3      1227.2392     -3407310       -23549.472      163.3009       141.37783    
    104000   24.995085     -3408527.1      1243.9586     -3407283.1     -23997.133      163.2609       136.20358    
    104200   25.397011     -3408530.1      1263.9617     -3407266.1     -24366.893      163.2209       140.69642    
    104400   25.870179     -3408524.7      1287.5104     -3407237.2     -24713.423      163.1809       132.89396    
    104600   26.262267     -3408514.5      1307.0239     -3407207.5     -24924.155      163.1409       123.39576    
    104800   26.252997     -3408492.1      1306.5626     -3407185.6     -24851.842      163.1009       120.67693    
    105000   26.145011     -3408465.9      1301.1883     -3407164.7     -24573.106      163.0609       118.77858    
    105200   26.398926     -3408457.1      1313.8251     -3407143.3     -24301.396      163.0209       116.12426    
    105400   26.705281     -3408446.6      1329.0718     -3407117.5     -24059.205      162.9809       108.92239    
    105600   27.001717     -3408438.7      1343.8249     -3407094.9     -23871.683      162.9409       103.86976    
    105800   27.290447     -3408442.2      1358.1945     -3407084       -23749.609      162.9009       110.7585     
    106000   27.466235     -3408440.9      1366.9431     -3407074       -23458.966      162.8609       119.47992    
    106200   27.293901     -3408416.1      1358.3664     -3407057.8     -23247.574      162.8209       122.1884     
    106400   27.594468     -3408409.2      1373.3251     -3407035.9     -23079.6        162.7809       119.58349    
    106600   27.825043     -3408402.3      1384.8003     -3407017.5     -23167.868      162.7409       120.61414    
    106800   28.392212     -3408404.8      1413.0273     -3406991.8     -23285.603      162.7009       113.89423    
    107000   28.556419     -3408396.7      1421.1995     -3406975.5     -23527.305      162.6609       116.15673    
    107200   28.717212     -3408381.6      1429.2019     -3406952.4     -23645.092      162.6209       111.43299    
[...]
    321000   58.222893     -3407965.9      2897.6444     -3405068.3     -28216.684      192.7965       0            
    321200   58.25946      -3407967.6      2899.4643     -3405068.2     -28343.336      192.8365       0            
    321400   58.323274     -3407970.6      2902.6402     -3405068       -28367.409      192.8765       0            
    321600   58.331457     -3407970.7      2903.0475     -3405067.7     -28193.797      192.9165       0            
    321800   58.173897     -3407962.9      2895.206      -3405067.7     -27882.185      192.9565       0            
    322000   58.310132     -3407969.4      2901.9862     -3405067.4     -27560.607      192.9965       0            
    322200   58.37193      -3407972.2      2905.0617     -3405067.1     -27172.859      193.0365       0            
    322400   58.4328       -3407975.2      2908.0911     -3405067.1     -26885.354      193.0765       0            
    322600   58.37803      -3407972.4      2905.3653     -3405067       -26638.779      193.1165       0            
    322800   58.464129     -3407976.7      2909.6503     -3405067       -26507.608      193.1565       0            
    323000   58.438494     -3407974.9      2908.3745     -3405066.5     -26502.81       193.1965       0            
    323200   58.430005     -3407974.3      2907.952      -3405066.4     -26710.238      193.2365       0            
    323400   58.31584      -3407968.3      2902.2703     -3405066       -26914.36       193.2765       0            
    323600   58.317576     -3407968        2902.3566     -3405065.6     -27257.459      193.3165       0            
    323800   58.421922     -3407973.1      2907.5497     -3405065.6     -27727.741      193.3565       0            
    324000   58.433547     -3407973.4      2908.1283     -3405065.2     -28002.279      193.3965       0            
    324200   58.236711     -3407963.2      2898.3321     -3405064.9     -28216.853      193.4365       0            
    324400   58.290892     -3407965.7      2901.0286     -3405064.6     -28359.111      193.4765       0            
    324600   58.166779     -3407959.1      2894.8518     -3405064.3     -28351.365      193.5165       0            
    324800   58.242858     -3407962.4      2898.6381     -3405063.8     -28214.64       193.5565       0            
    325000   58.269395     -3407963.5      2899.9588     -3405063.5     -27950.075      193.5965       0            
    325200   58.368861     -3407968.2      2904.909      -3405063.3     -27609.024      193.6365       0            
    325400   58.521788     -3407975.5      2912.5199     -3405063       -27147.41       193.6765       0            
    325600   58.59776      -3407979.3      2916.3009     -3405063       -26821.518      193.7165       0            
    325800   58.518309     -3407975.4      2912.3467     -3405063.1     -26646.133      193.7565       0            
    326000   58.499304     -3407974.4      2911.4009     -3405063       -26495.885      193.7965       0            
    326200   58.509008     -3407974.8      2911.8838     -3405062.9     -26467.923      193.8365       0            
    326400   58.493201     -3407973.8      2911.0972     -3405062.7     -26614.972      193.8765       0            
    326600   58.568342     -3407977.2      2914.8368     -3405062.4     -26937.73       193.9165       0            
    326800   58.420165     -3407969.8      2907.4623     -3405062.4     -27270.923      193.9565       0            
    327000   58.17572      -3407957.5      2895.2967     -3405062.2     -27659.355      193.9965       0            
    327200   58.351183     -3407966.4      2904.0292     -3405062.3     -28025.986      194.0365       0            
    327400   58.416434     -3407969.5      2907.2766     -3405062.3     -28222.21       194.0765       0            
    327600   58.301077     -3407963.5      2901.5355     -3405062       -28353.849      194.1165       0            
    327800   58.315857     -3407964.3      2902.2711     -3405062.1     -28383.241      194.1565       0            
    328000   58.412505     -3407968.9      2907.0811     -3405061.8     -28223.025      194.1965       0            
    328200   58.37494      -3407966.7      2905.2115     -3405061.4     -27923.696      194.2365       0            
    328400   58.577907     -3407976.7      2915.3128     -3405061.4     -27616.641      194.2765       0            
    328600   58.355762     -3407965.7      2904.2571     -3405061.5     -27161.913      194.3165       0            
    328800   58.558622     -3407975.7      2914.353      -3405061.4     -26813.266      194.3565       0            
    329000   58.481806     -3407971.7      2910.5301     -3405061.1     -26644.171      194.3965       0            
    329200   58.376802     -3407966.3      2905.3042     -3405061       -26511.318      194.4365       0            
    329400   58.47739      -3407971.2      2910.3103     -3405060.9     -26478.206      194.4765       0            
    329600   58.533935     -3407974        2913.1244     -3405060.9     -26665.019      194.5165       0            
    329800   58.394144     -3407966.6      2906.1673     -3405060.4     -26922.681      194.5565       0            
    330000   58.460571     -3407969.9      2909.4732     -3405060.4     -27262.179      194.5965       0            
    330200   58.528521     -3407973.2      2912.855      -3405060.3     -27690.834      194.6365       0            
    330400   58.347126     -3407963.6      2903.8273     -3405059.7     -28005.245      194.6765       0            
    330600   58.12968      -3407952.4      2893.0054     -3405059.4     -28197.169      194.7165       0            
    330800   58.339107     -3407962.5      2903.4282     -3405059.1     -28317.394      194.7565       0            
    331000   58.262744     -3407958.5      2899.6277     -3405058.9     -28340.865      194.7965       0            
    331200   58.380215     -3407964.3      2905.474      -3405058.8     -28207.989      194.8365       0            
    331400   58.431011     -3407966.9      2908.0021     -3405058.9     -27914.749      194.8765       0            
    331600   58.37218      -3407963.7      2905.0742     -3405058.6     -27629.142      194.9165       0            
    331800   58.435546     -3407966.7      2908.2278     -3405058.5     -27243.904      194.9565       0            
    332000   58.491981     -3407969.3      2911.0364     -3405058.3     -26886.203      194.9965       0            
    332200   58.526772     -3407970.7      2912.7679     -3405057.9     -26691.697      195.0365       0            
    332400   58.584288     -3407973.1      2915.6304     -3405057.5     -26574.183      195.0765       0            
    332600   58.527874     -3407970.2      2912.8228     -3405057.4     -26541.237      195.1165       0            
    332800   58.545736     -3407971        2913.7117     -3405057.3     -26650.458      195.1565       0            
    333000   58.366915     -3407961.7      2904.8122     -3405056.9     -26927.33       195.1965       0            
    333200   58.471646     -3407966.8      2910.0244     -3405056.8     -27218.994      195.2365       0            
    333400   58.411329     -3407963.8      2907.0226     -3405056.8     -27540.641      195.2765       0            
    333600   58.486109     -3407967.8      2910.7442     -3405057.1     -27903.972      195.3165       0            
    333800   58.377534     -3407962.3      2905.3406     -3405057       -28157.824      195.3565       0            
    334000   58.435936     -3407965        2908.2472     -3405056.8     -28284.781      195.3965       0            
    334200   58.427708     -3407964.4      2907.8377     -3405056.5     -28337.779      195.4365       0            
    334400   58.579718     -3407971.8      2915.4029     -3405056.4     -28255.1        195.4765       0            
    334600   58.586047     -3407972        2915.7179     -3405056.3     -27980.678      195.5165       0            
    334800   58.569508     -3407971        2914.8948     -3405056.1     -27702.005      195.5565       0            
    335000   58.414935     -3407963        2907.202      -3405055.8     -27341.927      195.5965       0            
    335200   58.469148     -3407965.8      2909.9001     -3405055.9     -26992.873      195.6365       0            
    335400   58.601566     -3407972.3      2916.4903     -3405055.8     -26706.65       195.6765       0            
    335600   58.571207     -3407970.5      2914.9794     -3405055.6     -26560.476      195.7165       0            
    335800   58.648187     -3407974        2918.8105     -3405055.2     -26538.654      195.7565       0            
    336000   58.586803     -3407970.7      2915.7555     -3405054.9     -26601.142      195.7965       0            
    336200   58.574517     -3407970.1      2915.1441     -3405055       -26853.638      195.8365       0            
    336400   58.42432      -3407962.3      2907.6691     -3405054.6     -27164.366      195.8765       0            
    336600   58.522457     -3407967.1      2912.5532     -3405054.5     -27537.688      195.9165       0            
    336800   58.426254     -3407962.2      2907.7654     -3405054.4     -27841.21       195.9565       0            
    337000   58.458319     -3407963.8      2909.3611     -3405054.4     -28159.78       195.9965       0            
    337200   58.465813     -3407964        2909.7341     -3405054.2     -28306.708      196.0365       0            
    337400   58.403918     -3407961        2906.6537     -3405054.3     -28351.1        196.0765       0            
    337600   58.352191     -3407958.5      2904.0794     -3405054.5     -28289.618      196.1165       0            
    337800   58.486044     -3407965        2910.741      -3405054.2     -28059.272      196.1565       0            
    338000   58.490765     -3407965.1      2910.9759     -3405054.1     -27696.433      196.1965       0            
    338200   58.562777     -3407968.3      2914.5598     -3405053.7     -27338.277      196.2365       0            
    338400   58.498877     -3407964.5      2911.3797     -3405053.1     -27034.555      196.2765       0            
    338600   58.573009     -3407968        2915.069      -3405052.9     -26711.08       196.3165       0            
    338800   58.647099     -3407971.5      2918.7564     -3405052.7     -26559.676      196.3565       0            
    339000   58.537487     -3407965.9      2913.3012     -3405052.6     -26470.879      196.3965       0            
    339200   58.593832     -3407968.2      2916.1054     -3405052.1     -26560.325      196.4365       0            
    339400   58.590305     -3407967.9      2915.9298     -3405051.9     -26761.459      196.4765       0            
    339600   58.605477     -3407968.6      2916.6849     -3405052       -27092.577      196.5165       0            
    339800   58.583789     -3407967.4      2915.6055     -3405051.7     -27443.664      196.5565       0            
    340000   58.527308     -3407964.3      2912.7946     -3405051.5     -27823.776      196.5965       0            
    340200   58.520892     -3407963.8      2912.4753     -3405051.3     -28075.527      196.6365       0            
    340400   58.537645     -3407964.4      2913.3091     -3405051.1     -28290.248      196.6765       0            
    340600   58.452325     -3407959.9      2909.0628     -3405050.9     -28357.932      196.7165       0            
    340800   58.365568     -3407955.4      2904.7451     -3405050.6     -28349.346      196.7565       0            
    341000   58.418718     -3407958        2907.3903     -3405050.6     -28134.839      196.7965       0            
    341200   58.532783     -3407963.3      2913.0671     -3405050.2     -27773.953      196.8365       0            
    341400   58.520801     -3407962.8      2912.4708     -3405050.3     -27389.006      196.8765       0            
    341600   58.488856     -3407961.2      2910.8809     -3405050.3     -27050.546      196.9165       0            
    341800   58.564945     -3407965        2914.6677     -3405050.3     -26772.923      196.9565       0            
    342000   58.502491     -3407961.8      2911.5595     -3405050.2     -26486.289      196.9965       0            
    342200   58.591392     -3407966.3      2915.9839     -3405050.3     -26409.881      197.0365       0            
    342400   58.561551     -3407964.7      2914.4988     -3405050.2     -26487.483      197.0765       0            
    342600   58.564363     -3407964.6      2914.6388     -3405049.9     -26725.913      197.1165       0            
    342800   58.720441     -3407972.2      2922.4065     -3405049.8     -27095.943      197.1565       0            
    343000   58.597532     -3407965.7      2916.2895     -3405049.4     -27490.674      197.1965       0            
    343200   58.49974      -3407960.9      2911.4226     -3405049.5     -27829.103      197.2365       0            
    343400   58.398088     -3407955.7      2906.3635     -3405049.4     -28126.646      197.2765       0            
    343600   58.388875     -3407955        2905.9051     -3405049.1     -28355.145      197.3165       0            
    343800   58.461305     -3407958.2      2909.5098     -3405048.7     -28416.063      197.3565       0            
    344000   58.399306     -3407954.8      2906.4242     -3405048.4     -28331.992      197.3965       0            
    344200   58.444245     -3407957.1      2908.6607     -3405048.5     -28141.091      197.4365       0            
    344400   58.542013     -3407962        2913.5264     -3405048.5     -27778.867      197.4765       0            
    344600   58.641215     -3407967        2918.4636     -3405048.5     -27349.832      197.5165       0            
    344800   58.595794     -3407964.7      2916.203      -3405048.5     -27014.78       197.5565       0            
    345000   58.623597     -3407966        2917.5867     -3405048.4     -26662.756      197.5965       0            
    345200   58.608667     -3407965.2      2916.8437     -3405048.3     -26518.472      197.6365       0            
    345400   58.637492     -3407966.6      2918.2782     -3405048.3     -26422.543      197.6765       0            
    345600   58.721791     -3407970.7      2922.4737     -3405048.2     -26514.814      197.7165       0            
    345800   58.610768     -3407964.7      2916.9483     -3405047.7     -26721.251      197.7565       0            
    346000   58.594141     -3407963.7      2916.1208     -3405047.6     -27122.519      197.7965       0            
    346200   58.502792     -3407959        2911.5745     -3405047.4     -27464.759      197.8365       0            
    346400   58.418071     -3407954.4      2907.3581     -3405047.1     -27790.837      197.8765       0            
    346600   58.510925     -3407958.9      2911.9793     -3405046.9     -28118.59       197.9165       0            
    346800   58.390394     -3407952.7      2905.9806     -3405046.7     -28288.205      197.9565       0            
    347000   58.458438     -3407955.9      2909.3671     -3405046.5     -28401.726      197.9965       0            
    347200   58.541269     -3407959.9      2913.4894     -3405046.4     -28305.936      198.0365       0            
    347400   58.758574     -3407970.3      2924.3043     -3405046       -28116.54       198.0765       0            
    347600   58.615583     -3407962.9      2917.1879     -3405045.7     -27737.907      198.1165       0            
    347800   58.646028     -3407964.1      2918.7031     -3405045.4     -27343.333      198.1565       0            
    348000   58.610879     -3407961.9      2916.9538     -3405044.9     -26975.324      198.1965       0            
    348200   58.569913     -3407959.4      2914.915      -3405044.5     -26712.768      198.2365       0            
    348400   58.669772     -3407964.2      2919.8847     -3405044.4     -26535.828      198.2765       0            
    348600   58.70108      -3407966        2921.4429     -3405044.6     -26476.693      198.3165       0            
    348661   58.653922     -3407963.5      2919.0959     -3405044.4     -26484.232      198.3287       0            
Loop time of 3403.38 on 62 procs for 200000 steps with 385024 atoms

Performance: 10.155 ns/day, 2.363 hours/ns, 58.765 timesteps/s, 22.626 Matom-step/s
98.3% CPU use with 62 MPI tasks x 1 OpenMP threads

MPI task timing breakdown:
Section |  min time  |  avg time  |  max time  |%varavg| %total
---------------------------------------------------------------
Pair    | 1578.4     | 1690.4     | 1977.2     | 224.4 | 49.67
Neigh   | 0.58744    | 0.66423    | 0.80104    |   6.2 |  0.02
Comm    | 150.93     | 300.6      | 500.15     | 528.2 |  8.83
Output  | 1175.2     | 1183.2     | 1190.8     |  13.5 | 34.77
Modify  | 40.391     | 44.873     | 53.418     |  46.7 |  1.32
Other   |            | 183.6      |            |       |  5.40

Nlocal:        6210.06 ave        7532 max        5954 min
Histogram: 48 5 0 0 1 0 1 1 4 2
Nghost:        17053.4 ave       18089 max       14654 min
Histogram: 4 3 2 2 9 4 2 2 3 31
Neighs:         341184 ave      413002 max      318858 min
Histogram: 16 29 7 1 1 0 1 1 4 2

Total # of neighbors = 21153426
Ave neighs/atom = 54.940539
Neighbor list builds = 70
Dangerous builds = 0

# ------------------------ Final Relaxation --------------------------
print "Final relaxation.........................................................................................."
Final relaxation..........................................................................................
unfix indenter_unload
thermo_style custom step temp pe ke etotal press
run 1000
Per MPI rank memory allocation (min/avg/max) = 9.445 | 9.551 | 9.973 Mbytes
   Step          Temp          PotEng         KinEng         TotEng         Press     
    348661   58.653922     -3407963.5      2919.0959     -3405044.4     -26484.232    
    348800   58.731891     -3407967.2      2922.9763     -3405044.2     -26516.842    
    349000   58.644706     -3407962.7      2918.6373     -3405044.1     -26748.305    
    349200   58.680575     -3407964.3      2920.4224     -3405043.9     -27096.655    
    349400   58.623336     -3407961.2      2917.5737     -3405043.7     -27484.162    
    349600   58.556945     -3407957.8      2914.2696     -3405043.6     -27818.797    
    349661   58.475362     -3407953.6      2910.2093     -3405043.4     -27899.555    
Loop time of 11.6379 on 62 procs for 1000 steps with 385024 atoms

Performance: 14.848 ns/day, 1.616 hours/ns, 85.926 timesteps/s, 33.084 Matom-step/s
98.5% CPU use with 62 MPI tasks x 1 OpenMP threads

MPI task timing breakdown:
Section |  min time  |  avg time  |  max time  |%varavg| %total
---------------------------------------------------------------
Pair    | 7.7631     | 8.6313     | 10.366     |  17.3 | 74.17
Neigh   | 0          | 0          | 0          |   0.0 |  0.00
Comm    | 0.75808    | 1.6397     | 2.7752     |  39.5 | 14.09
Output  | 0.053414   | 0.09601    | 0.13541    |   7.8 |  0.82
Modify  | 0.15945    | 0.17802    | 0.21873    |   3.5 |  1.53
Other   |            | 1.093      |            |       |  9.39

Nlocal:        6210.06 ave        7522 max        5940 min
Histogram: 49 3 0 2 0 0 1 1 3 3
Nghost:        17058.8 ave       18094 max       14637 min
Histogram: 6 1 1 3 9 4 2 1 3 32
Neighs:         341185 ave      412489 max      319395 min
Histogram: 17 32 3 0 2 0 1 1 2 4

Total # of neighbors = 21153499
Ave neighs/atom = 54.940728
Neighbor list builds = 0
Dangerous builds = 0

undump trajectory
print "-----------------------Nanoindentation completed---------------------"
-----------------------Nanoindentation completed---------------------
Total wall time: 1:42:05
